# LAMMPS data file written by OVITO Basic 3.10.4

100 atoms
2 atom types

0.0 34.472 xlo xhi
0.0 34.472 ylo yhi
-13.7888 103.416 zlo zhi

Atoms  # atomic

998 2 29.41512996 32.959161808 15.0067784928
802 1 3.70901484 34.296468576 17.3477099632
808 2 5.341367456 1.8749975768 15.6778931776
816 2 12.100637216 1.8212453872 15.5845981568
824 2 18.901618096 1.4443009616 15.5996003712
832 2 26.047008728 2.0832877424 15.3675348672
826 1 24.294900384 0.3795160368 16.9186231904
834 1 30.820139736 0.0907837356 17.0592689504
840 2 32.79545428 1.6867735624 15.3833575152
812 1 7.052936728 3.492496208 17.3998660992
820 1 13.70262 3.78812808 17.3569691424
822 2 15.532428232 5.384422984 15.3267475968
828 1 20.81109112 3.4064334128 16.8234528928
830 2 22.555787984 5.272113208 15.2689656304
836 1 27.915977152 3.474812072 17.1693242576
804 1 34.274234136 3.2181714792 17.4874180848
806 2 1.5745809912 5.254842736 15.7114137504
842 1 3.3182643784 7.126499976 17.357203552
814 2 8.52785572 5.241708904 15.5814336272
850 1 10.351907128 7.07055192 17.6382606624
858 1 17.098112 7.023876832 16.750668712
838 2 29.677875544 5.512279632 15.5823712656
848 2 5.086412544 8.982127736 15.6089767552
852 1 7.024256024 10.544088528 17.063605528
856 2 11.76046752 8.552055064 15.3077604192
860 1 13.497097936 10.176548064 17.1185745792
864 2 19.15109196 8.542747624 15.2811549296
868 1 20.926262072 10.081543232 17.2969602848
872 2 26.215507864 8.067792408 15.7524354304
876 1 27.944933632 10.063204128 17.2310911872
844 1 34.47303416 10.366316424 17.5146095984
880 2 32.691728032 8.801873648 15.7225482064
846 2 1.7395364056 12.253865256 15.8556928592
854 2 8.572703792 12.194849192 15.0768669632
862 2 15.408087728 11.768844216 15.3083464432
870 2 22.620250624 11.533331512 15.3210045616
878 2 29.494001896 12.019455656 15.2298192272
882 1 3.75469024 14.007386952 17.532424728
888 2 5.328543872 15.324424184 15.1862190416
890 1 10.178995576 13.782388208 17.0575108784
896 2 11.851059936 15.684001616 15.2161062656
898 1 17.334865696 13.535499744 16.9430017888
904 2 19.162950328 15.559523224 15.2493924288
906 1 24.454712576 13.244556064 16.97159976
912 2 26.157284656 15.270889168 15.6253854272
914 1 31.148761312 13.636054568 17.0930239328
920 2 33.050581552 15.421083672 15.6427317376
884 1 0.3906401512 17.053677592 17.2456245824
892 1 6.938213912 16.995075192 17.0075816336
900 1 13.838715456 17.017585408 16.805168944
908 1 20.926434432 16.940609432 17.3875595952
886 2 1.7683756808 18.725776424 15.2693172448
922 1 3.37377464 20.54289896 16.968083616
894 2 8.525821872 19.10576128 14.9296577344
930 1 10.528507184 20.30435272 16.8276722656
902 2 15.494440088 18.710332968 15.4394986144
938 1 17.32924676 20.67578852 16.821577616
910 2 22.661927272 18.73087828 15.7417697936
946 1 24.505731136 20.74817972 17.4983181312
918 2 29.397962904 18.966080736 15.4103146192
954 1 31.816001344 20.442516496 17.2192535024
928 2 5.390455584 22.523591136 15.288538832
932 1 7.486008464 23.797469424 16.9363211152
936 2 12.29047452 22.60604816 14.9561460192
944 2 19.119515608 22.682196808 15.5005623152
952 2 25.713043992 22.469297736 15.4117210768
960 2 32.82475548 22.391011824 15.3019001792
926 2 1.8608743984 26.117435024 14.78866036
924 1 0.026355085 24.568263344 16.7687182512
934 2 8.648921384 25.898882544 15.294985096
942 2 15.900589192 25.861377008 15.2796312672
940 1 13.717063768 24.262669064 16.7554741088
948 1 20.933225416 24.201481264 17.0256311728
950 2 22.96645292 25.892505224 15.697583584
956 1 27.586631664 24.137225456 17.0198881376
958 2 28.992261936 25.979891744 15.4752460784
962 1 3.477673248 27.578048136 16.8602552
970 1 10.499516232 27.786982928 16.70495884
978 1 17.762594272 27.812836928 16.7024975392
986 1 24.615386568 28.083683432 17.0986497632
994 1 30.788287608 27.687634624 16.9233113824
964 1 34.309843712 30.5275414 16.9595276656
968 2 5.092307256 29.481350672 15.4984526288
972 1 7.031288312 30.94913396 16.8686939456
976 2 12.115770424 29.598624416 15.0088881792
980 1 13.81999716 30.764570872 17.24410092
984 2 19.464476912 29.861990496 15.3644875424
988 1 21.149571688 31.458354344 17.3369271216
992 2 26.081446256 29.698903464 15.275646304
996 1 27.77477984 31.429053144 16.608850904
1000 2 32.386823192 29.33929156 15.1044100912
966 2 1.5194602632 32.801590296 15.5555313664
810 1 10.352182904 0.0196657934 17.341380904
974 2 8.645887848 32.86629424 15.4348104224
982 2 15.492130464 32.688349776 15.5747529536
818 1 17.161954144 34.33462908 17.2772698784
990 2 22.76944544 32.872981808 15.223490168
866 1 24.323925808 6.547163544 17.474408352
874 1 31.12890544 7.358427592 17.4891761568
916 1 27.573497832 17.371888624 17.3186431728
