ITEM: TIMESTEP
100
ITEM: NUMBER OF ATOMS
1250
ITEM: BOX BOUNDS pp pp pp
0.0000000000000000e+00 3.4472000000000001e+01
0.0000000000000000e+00 3.4472000000000001e+01
-1.3788800000000000e+01 1.0341600000000000e+02
ITEM: ATOMS id type xs ys zs
1 1 0 0 0
8 2 0.15 0.05 0.0147059
9 1 0.2 0 0
16 2 0.35 0.05 0.0147059
17 1 0.4 0 0
24 2 0.55 0.05 0.0147059
25 1 0.6 0 0
32 2 0.75 0.05 0.0147059
33 1 0.8 0 0
40 2 0.95 0.05 0.0147059
6 2 0.05 0.15 0.0147059
3 1 0.1 0.1 0
11 1 0.3 0.1 0
14 2 0.25 0.15 0.0147059
22 2 0.45 0.15 0.0147059
19 1 0.5 0.1 0
30 2 0.65 0.15 0.0147059
27 1 0.7 0.1 0
35 1 0.9 0.1 0
38 2 0.85 0.15 0.0147059
41 1 0 0.2 0
49 1 0.2 0.2 0
57 1 0.4 0.2 0
65 1 0.6 0.2 0
73 1 0.8 0.2 0
43 1 0.1 0.3 0
48 2 0.15 0.25 0.0147059
51 1 0.3 0.3 0
56 2 0.35 0.25 0.0147059
59 1 0.5 0.3 0
64 2 0.55 0.25 0.0147059
67 1 0.7 0.3 0
72 2 0.75 0.25 0.0147059
75 1 0.9 0.3 0
80 2 0.95 0.25 0.0147059
46 2 0.05 0.35 0.0147059
54 2 0.25 0.35 0.0147059
62 2 0.45 0.35 0.0147059
70 2 0.65 0.35 0.0147059
78 2 0.85 0.35 0.0147059
81 1 0 0.4 0
88 2 0.15 0.45 0.0147059
89 1 0.2 0.4 0
96 2 0.35 0.45 0.0147059
97 1 0.4 0.4 0
104 2 0.55 0.45 0.0147059
105 1 0.6 0.4 0
112 2 0.75 0.45 0.0147059
113 1 0.8 0.4 0
120 2 0.95 0.45 0.0147059
83 1 0.1 0.5 0
91 1 0.3 0.5 0
99 1 0.5 0.5 0
107 1 0.7 0.5 0
115 1 0.9 0.5 0
86 2 0.05 0.55 0.0147059
121 1 0 0.6 0
129 1 0.2 0.6 0
94 2 0.25 0.55 0.0147059
102 2 0.45 0.55 0.0147059
137 1 0.4 0.6 0
145 1 0.6 0.6 0
110 2 0.65 0.55 0.0147059
153 1 0.8 0.6 0
118 2 0.85 0.55 0.0147059
128 2 0.15 0.65 0.0147059
136 2 0.35 0.65 0.0147059
144 2 0.55 0.65 0.0147059
152 2 0.75 0.65 0.0147059
160 2 0.95 0.65 0.0147059
126 2 0.05 0.75 0.0147059
123 1 0.1 0.7 0
131 1 0.3 0.7 0
134 2 0.25 0.75 0.0147059
142 2 0.45 0.75 0.0147059
139 1 0.5 0.7 0
150 2 0.65 0.75 0.0147059
147 1 0.7 0.7 0
155 1 0.9 0.7 0
158 2 0.85 0.75 0.0147059
161 1 0 0.8 0
169 1 0.2 0.8 0
177 1 0.4 0.8 0
185 1 0.6 0.8 0
193 1 0.8 0.8 0
163 1 0.1 0.9 0
168 2 0.15 0.85 0.0147059
171 1 0.3 0.9 0
176 2 0.35 0.85 0.0147059
179 1 0.5 0.9 0
184 2 0.55 0.85 0.0147059
187 1 0.7 0.9 0
192 2 0.75 0.85 0.0147059
195 1 0.9 0.9 0
200 2 0.95 0.85 0.0147059
166 2 0.05 0.95 0.0147059
174 2 0.25 0.95 0.0147059
182 2 0.45 0.95 0.0147059
190 2 0.65 0.95 0.0147059
198 2 0.85 0.95 0.0147059
7 2 0.0504619 0.0534562 0.0439019
2 1 0.1 0 0.0294118
10 1 0.3 0 0.0294118
15 2 0.247665 0.0501563 0.0447047
23 2 0.452098 0.0511577 0.0448622
18 1 0.5 0 0.0294118
31 2 0.651554 0.0501098 0.0438884
26 1 0.7 0 0.0294118
34 1 0.9 0 0.0294118
39 2 0.852724 0.0508156 0.0440983
4 1 0 0.1 0.0294118
5 2 0.147425 0.150872 0.0430296
12 1 0.2 0.1 0.0294118
13 2 0.348419 0.151652 0.0449088
20 1 0.4 0.1 0.0294118
21 2 0.551185 0.152118 0.0430179
28 1 0.6 0.1 0.0294118
29 2 0.753474 0.147744 0.0432512
36 1 0.8 0.1 0.0294118
37 2 0.951612 0.146475 0.0448779
42 1 0.1 0.2 0.0294118
50 1 0.3 0.2 0.0294118
58 1 0.5 0.2 0.0294118
66 1 0.7 0.2 0.0294118
74 1 0.9 0.2 0.0294118
44 1 0 0.3 0.0294118
47 2 0.0469073 0.252657 0.0426166
52 1 0.2 0.3 0.0294118
55 2 0.248729 0.252929 0.0449311
60 1 0.4 0.3 0.0294118
63 2 0.449126 0.248037 0.0442107
68 1 0.6 0.3 0.0294118
71 2 0.653533 0.246016 0.0436652
76 1 0.8 0.3 0.0294118
79 2 0.847318 0.253139 0.0434197
45 2 0.145875 0.353276 0.0431269
53 2 0.348308 0.349799 0.0431032
61 2 0.553872 0.349767 0.0438155
69 2 0.751025 0.346018 0.0436419
77 2 0.949717 0.35226 0.0445619
87 2 0.0469347 0.447104 0.0435552
82 1 0.1 0.4 0.0294118
90 1 0.3 0.4 0.0294118
95 2 0.252789 0.4516 0.0443956
103 2 0.448114 0.449831 0.0427902
98 1 0.5 0.4 0.0294118
111 2 0.651381 0.445714 0.0438778
106 1 0.7 0.4 0.0294118
114 1 0.9 0.4 0.0294118
119 2 0.850885 0.445422 0.0431266
84 1 0 0.5 0.0294118
92 1 0.2 0.5 0.0294118
100 1 0.4 0.5 0.0294118
108 1 0.6 0.5 0.0294118
116 1 0.8 0.5 0.0294118
85 2 0.146132 0.548924 0.0437473
122 1 0.1 0.6 0.0294118
130 1 0.3 0.6 0.0294118
93 2 0.348944 0.552755 0.0442162
138 1 0.5 0.6 0.0294118
101 2 0.551324 0.554175 0.044861
109 2 0.753453 0.546645 0.0447184
146 1 0.7 0.6 0.0294118
154 1 0.9 0.6 0.0294118
117 2 0.950472 0.553939 0.0432755
127 2 0.054163 0.65305 0.0428371
135 2 0.247754 0.648825 0.0443387
143 2 0.450612 0.653362 0.0431099
151 2 0.646911 0.650533 0.0428614
159 2 0.850867 0.652212 0.0445801
124 1 0 0.7 0.0294118
125 2 0.154607 0.750606 0.0448861
132 1 0.2 0.7 0.0294118
133 2 0.350587 0.747469 0.0433003
140 1 0.4 0.7 0.0294118
141 2 0.547313 0.75256 0.0447656
148 1 0.6 0.7 0.0294118
149 2 0.749011 0.750735 0.0436362
156 1 0.8 0.7 0.0294118
157 2 0.950315 0.752856 0.0437716
162 1 0.1 0.8 0.0294118
170 1 0.3 0.8 0.0294118
178 1 0.5 0.8 0.0294118
186 1 0.7 0.8 0.0294118
194 1 0.9 0.8 0.0294118
164 1 0 0.9 0.0294118
167 2 0.0497831 0.854029 0.0429439
172 1 0.2 0.9 0.0294118
175 2 0.253002 0.84975 0.0445758
180 1 0.4 0.9 0.0294118
183 2 0.452771 0.853762 0.0434602
188 1 0.6 0.9 0.0294118
191 2 0.652421 0.845837 0.0447858
196 1 0.8 0.9 0.0294118
199 2 0.853525 0.849586 0.0445772
165 2 0.145718 0.948276 0.044881
173 2 0.349703 0.949167 0.0445714
181 2 0.546215 0.948474 0.0435895
189 2 0.753106 0.950766 0.0430614
197 2 0.946804 0.948105 0.0432708
201 1 0.00118694 0.00236708 0.0587297
209 1 0.199921 0.996887 0.0579373
217 1 0.396589 0.00399427 0.0585761
225 1 0.595771 0.996801 0.0578732
233 1 0.803572 0.998469 0.0568603
203 1 0.103386 0.100957 0.0570528
211 1 0.300475 0.101639 0.0582521
219 1 0.502737 0.104362 0.0568795
227 1 0.701328 0.102767 0.0570457
235 1 0.902265 0.10021 0.0571563
241 1 0.000378712 0.202378 0.0581003
249 1 0.203794 0.196244 0.0578224
257 1 0.401597 0.200506 0.0590664
265 1 0.598553 0.20321 0.0584324
273 1 0.797399 0.202908 0.0571278
243 1 0.097785 0.295827 0.0587247
251 1 0.297599 0.298783 0.0569163
259 1 0.500335 0.296391 0.0575473
267 1 0.70358 0.298683 0.0582943
275 1 0.90196 0.302317 0.058654
281 1 0.000168033 0.395975 0.0574931
289 1 0.200301 0.399317 0.0584434
297 1 0.402078 0.400539 0.0569514
305 1 0.601408 0.395484 0.0594853
313 1 0.801378 0.399518 0.059081
283 1 0.100132 0.502929 0.056973
291 1 0.295828 0.49994 0.0584994
299 1 0.503736 0.503393 0.0591463
307 1 0.702038 0.502579 0.057821
315 1 0.897743 0.49585 0.0584527
321 1 0.998264 0.604535 0.0584358
329 1 0.196867 0.597765 0.0584488
337 1 0.403023 0.602554 0.0594051
345 1 0.604497 0.5961 0.0581138
353 1 0.79605 0.599074 0.0576514
323 1 0.100414 0.700087 0.0571798
331 1 0.301993 0.698895 0.0568716
339 1 0.496433 0.704531 0.0592126
347 1 0.703445 0.698164 0.059233
355 1 0.898852 0.700374 0.0585364
361 1 0.00207092 0.801127 0.058161
369 1 0.204816 0.804117 0.0579569
377 1 0.396933 0.802715 0.0582151
385 1 0.598581 0.801881 0.0592341
393 1 0.797005 0.799523 0.0587246
363 1 0.0981291 0.89574 0.0574412
371 1 0.300412 0.899883 0.0595197
379 1 0.49972 0.896052 0.05872
387 1 0.703229 0.900451 0.0575379
395 1 0.897321 0.897113 0.0581767
202 1 0.101043 0.00109494 0.0877216
208 2 0.146339 0.0526435 0.0715153
210 1 0.296551 0.002992 0.0870911
216 2 0.349971 0.0535356 0.0718526
218 1 0.497862 0.000184436 0.0865893
224 2 0.546201 0.0529396 0.0737853
226 1 0.699035 0.996918 0.0860606
232 2 0.751031 0.0523533 0.0725899
234 1 0.904358 0.995764 0.0860832
240 2 0.950363 0.0528971 0.0717872
204 1 0.996799 0.100208 0.0867915
206 2 0.0528466 0.151145 0.0719555
212 1 0.198846 0.102408 0.0880885
214 2 0.250283 0.152536 0.0726202
220 1 0.399014 0.0957091 0.0858548
222 2 0.448418 0.147878 0.071464
228 1 0.597688 0.101696 0.0870787
230 2 0.651483 0.149078 0.0716631
236 1 0.798267 0.0984251 0.0864222
238 2 0.846166 0.148237 0.0737082
242 1 0.104464 0.198702 0.0871101
250 1 0.301826 0.198882 0.0882492
258 1 0.496694 0.199966 0.0869957
266 1 0.700978 0.200468 0.0856186
274 1 0.895386 0.198075 0.0874293
244 1 0.999787 0.297763 0.085902
248 2 0.147668 0.252617 0.0718132
252 1 0.200219 0.303957 0.0864072
256 2 0.351094 0.249579 0.0725002
260 1 0.403973 0.296042 0.0880639
264 2 0.549809 0.250212 0.0725969
268 1 0.599593 0.303171 0.0871997
272 2 0.751442 0.246316 0.0724405
276 1 0.800791 0.302557 0.0873421
280 2 0.949766 0.246372 0.0717468
246 2 0.0538027 0.347001 0.0718859
254 2 0.24771 0.351508 0.0716797
262 2 0.447732 0.350491 0.0735671
270 2 0.652605 0.35295 0.0728274
278 2 0.84886 0.353592 0.0718377
282 1 0.101822 0.396752 0.0877666
288 2 0.152882 0.447456 0.0734201
290 1 0.297507 0.395337 0.087625
296 2 0.349469 0.449962 0.0738519
298 1 0.500953 0.397869 0.0878906
304 2 0.550052 0.449326 0.0722614
306 1 0.700851 0.396277 0.0866041
312 2 0.752536 0.450287 0.0720831
314 1 0.897566 0.398812 0.0870906
320 2 0.948092 0.452302 0.0732194
284 1 0.999624 0.498254 0.0866426
292 1 0.203324 0.495804 0.0863621
300 1 0.402134 0.504373 0.086718
308 1 0.60118 0.498413 0.0866176
316 1 0.799149 0.502503 0.0861875
286 2 0.049684 0.547764 0.0715096
322 1 0.102985 0.601143 0.0880694
294 2 0.246374 0.549344 0.0714153
330 1 0.30142 0.603952 0.0868289
302 2 0.452496 0.553166 0.0732945
338 1 0.503005 0.597781 0.0858632
310 2 0.64858 0.550531 0.0718866
346 1 0.701173 0.603777 0.0862878
318 2 0.848311 0.551877 0.0712219
354 1 0.896158 0.594818 0.0881201
328 2 0.150922 0.65288 0.0722725
336 2 0.348587 0.652236 0.0737511
344 2 0.54904 0.646395 0.0719962
352 2 0.747789 0.648572 0.0722676
360 2 0.945777 0.651759 0.0721823
324 1 0.00436382 0.697144 0.0865953
326 2 0.0464364 0.748142 0.0715147
332 1 0.202799 0.700911 0.0873312
334 2 0.252677 0.752684 0.0729649
340 1 0.397208 0.696069 0.0873857
342 2 0.452292 0.751746 0.0739965
348 1 0.599878 0.696519 0.0871155
350 2 0.654083 0.749728 0.0736682
356 1 0.803377 0.701822 0.0882067
358 2 0.853614 0.751184 0.0715959
362 1 0.101727 0.802106 0.0870406
370 1 0.298963 0.798748 0.0874854
378 1 0.501889 0.80128 0.088204
386 1 0.704772 0.799297 0.088052
394 1 0.897646 0.796074 0.0872473
364 1 0.00289956 0.899632 0.0865207
368 2 0.150874 0.848901 0.0716741
372 1 0.195951 0.899673 0.087989
376 2 0.346948 0.851902 0.0734382
380 1 0.40443 0.899804 0.0871817
384 2 0.554518 0.854436 0.0720213
388 1 0.60477 0.900196 0.0869269
392 2 0.751026 0.853365 0.0737614
396 1 0.801935 0.896932 0.0882477
400 2 0.952916 0.847345 0.0736406
366 2 0.0504839 0.95356 0.0721277
374 2 0.246144 0.946441 0.0724073
382 2 0.450696 0.954034 0.0713578
390 2 0.645985 0.949062 0.0719747
398 2 0.852767 0.951929 0.0722575
207 2 0.0511951 0.0496902 0.100532
215 2 0.251163 0.0473847 0.10064
223 2 0.453697 0.0460895 0.1008
231 2 0.648714 0.0514657 0.101589
239 2 0.850299 0.0466337 0.0999229
205 2 0.152866 0.151029 0.101605
213 2 0.352211 0.148537 0.102282
221 2 0.545561 0.151728 0.102046
229 2 0.750018 0.147571 0.100564
237 2 0.946727 0.146098 0.101771
247 2 0.053454 0.250962 0.101732
255 2 0.248973 0.247156 0.101951
263 2 0.447855 0.249188 0.100848
271 2 0.653821 0.246633 0.101568
279 2 0.846541 0.25076 0.100407
245 2 0.1479 0.353051 0.100483
253 2 0.353772 0.347026 0.102362
261 2 0.550427 0.348179 0.100873
269 2 0.751328 0.350615 0.100192
277 2 0.950841 0.349787 0.100982
287 2 0.0505582 0.449996 0.101394
295 2 0.24603 0.453803 0.10251
303 2 0.452125 0.45071 0.101082
311 2 0.647262 0.449456 0.100602
319 2 0.848203 0.450396 0.101847
285 2 0.146567 0.549168 0.102557
293 2 0.354117 0.553792 0.100722
301 2 0.549518 0.549759 0.101914
309 2 0.749155 0.547484 0.102503
317 2 0.954232 0.546375 0.101946
327 2 0.0496407 0.649993 0.100198
335 2 0.252214 0.646149 0.102515
343 2 0.452493 0.647422 0.100062
351 2 0.64628 0.652257 0.101879
359 2 0.852045 0.64715 0.101322
325 2 0.15168 0.752223 0.100445
333 2 0.351366 0.74557 0.101235
341 2 0.550277 0.747047 0.101833
349 2 0.752637 0.751906 0.102559
357 2 0.952575 0.746796 0.10009
367 2 0.0529412 0.846477 0.100654
375 2 0.246579 0.846968 0.100431
383 2 0.448159 0.84969 0.101209
391 2 0.654487 0.85112 0.102163
399 2 0.854397 0.846581 0.102743
365 2 0.150809 0.949208 0.100859
373 2 0.346904 0.951782 0.101324
381 2 0.54875 0.947595 0.100478
389 2 0.746071 0.952257 0.102205
397 2 0.946574 0.945951 0.101635
401 1 0.997376 0.998946 0.116385
408 2 0.150316 0.0525287 0.13123
409 1 0.197849 0.000326576 0.116674
416 2 0.346824 0.0511941 0.130815
417 1 0.397544 0.997361 0.116766
424 2 0.553369 0.0462724 0.130151
425 1 0.597265 0.0016628 0.114864
432 2 0.751212 0.0536277 0.129775
433 1 0.796041 0.00263914 0.11497
440 2 0.946608 0.0458625 0.13121
406 2 0.0495263 0.147698 0.130058
403 1 0.100447 0.101461 0.11694
411 1 0.295234 0.0980553 0.116865
414 2 0.248325 0.153869 0.130573
422 2 0.446756 0.148164 0.12966
419 1 0.501648 0.0992592 0.116161
430 2 0.647214 0.154444 0.129371
427 1 0.695561 0.103386 0.115077
435 1 0.897158 0.0969924 0.115756
438 2 0.853708 0.150518 0.131152
441 1 0.996671 0.195656 0.115246
449 1 0.199575 0.199323 0.116742
457 1 0.399184 0.204442 0.117095
465 1 0.595388 0.203881 0.116824
473 1 0.799505 0.201939 0.114837
443 1 0.098107 0.301667 0.116061
448 2 0.151007 0.248733 0.128952
451 1 0.300495 0.295482 0.116014
456 2 0.34943 0.249235 0.131308
459 1 0.499497 0.300171 0.114702
464 2 0.549535 0.250184 0.130547
467 1 0.699589 0.295997 0.116293
472 2 0.752309 0.250046 0.129357
475 1 0.899242 0.296463 0.116121
480 2 0.954078 0.25356 0.129684
446 2 0.0523409 0.34633 0.129355
454 2 0.247637 0.348942 0.129193
462 2 0.449374 0.35326 0.130508
470 2 0.652623 0.345857 0.13036
478 2 0.849198 0.3529 0.129185
481 1 0.00392488 0.39921 0.115034
488 2 0.1485 0.452424 0.130866
489 1 0.195212 0.397395 0.116793
496 2 0.347769 0.449392 0.130309
497 1 0.398959 0.403836 0.116954
504 2 0.546427 0.445212 0.131113
505 1 0.600254 0.400378 0.116106
512 2 0.74977 0.44861 0.13083
513 1 0.800265 0.398884 0.114744
520 2 0.951973 0.450745 0.128991
483 1 0.0969029 0.503439 0.116773
491 1 0.300734 0.500187 0.115636
499 1 0.504417 0.497298 0.116412
507 1 0.696148 0.502076 0.114625
515 1 0.896888 0.496937 0.116251
486 2 0.0508322 0.550544 0.130152
521 1 0.00412736 0.596403 0.115392
529 1 0.200087 0.598509 0.116944
494 2 0.246299 0.553029 0.130186
502 2 0.447082 0.553259 0.130338
537 1 0.397027 0.599612 0.114981
545 1 0.601264 0.597535 0.114474
510 2 0.646579 0.546674 0.131179
553 1 0.798797 0.601478 0.115691
518 2 0.847933 0.551517 0.131263
528 2 0.149523 0.647381 0.129897
536 2 0.351863 0.649135 0.129203
544 2 0.554111 0.653344 0.12962
552 2 0.75308 0.652403 0.129016
560 2 0.953604 0.645768 0.130247
526 2 0.0484553 0.750653 0.130127
523 1 0.104467 0.703526 0.115248
531 1 0.296558 0.695541 0.116697
534 2 0.246501 0.747983 0.130991
542 2 0.446332 0.753074 0.131339
539 1 0.503472 0.704204 0.116562
550 2 0.653761 0.745881 0.130007
547 1 0.699147 0.703507 0.11512
555 1 0.903071 0.702417 0.114904
558 2 0.85145 0.747814 0.129239
561 1 0.0041908 0.800498 0.114575
569 1 0.198523 0.797684 0.116719
577 1 0.402493 0.800587 0.115668
585 1 0.601587 0.803719 0.116772
593 1 0.804837 0.803093 0.116635
563 1 0.104273 0.896455 0.115772
568 2 0.15082 0.853218 0.130446
571 1 0.296009 0.897925 0.115229
576 2 0.34925 0.850137 0.130992
579 1 0.500774 0.897353 0.114764
584 2 0.552635 0.84848 0.129806
587 1 0.700704 0.900557 0.116986
592 2 0.752334 0.8494 0.129187
595 1 0.90339 0.904225 0.116993
600 2 0.949956 0.852636 0.129225
566 2 0.0496413 0.947655 0.130442
574 2 0.254206 0.947443 0.129494
582 2 0.451187 0.946131 0.129135
590 2 0.649628 0.945959 0.130034
598 2 0.84859 0.951887 0.12938
402 1 0.0971996 0.996467 0.143811
410 1 0.301965 0.00322719 0.144956
418 1 0.503668 0.996108 0.144698
426 1 0.6962 0.000374355 0.143463
434 1 0.895895 0.99615 0.143832
404 1 0.995734 0.101836 0.143631
412 1 0.202596 0.101928 0.145584
420 1 0.402921 0.103405 0.144629
428 1 0.601156 0.104496 0.143613
436 1 0.798746 0.0999204 0.145084
442 1 0.0966762 0.203673 0.145488
450 1 0.301788 0.201947 0.144557
458 1 0.497352 0.201283 0.144729
466 1 0.699988 0.195489 0.144336
474 1 0.900208 0.197902 0.145829
444 1 0.999015 0.302232 0.143979
452 1 0.201428 0.302942 0.145694
460 1 0.404702 0.298281 0.143721
468 1 0.596118 0.300912 0.145113
476 1 0.800098 0.296704 0.144879
482 1 0.102152 0.398375 0.14339
490 1 0.300803 0.402396 0.144048
498 1 0.498383 0.40329 0.145628
506 1 0.695802 0.397083 0.144412
514 1 0.89809 0.401985 0.144432
484 1 0.000437257 0.497682 0.145154
492 1 0.198436 0.496891 0.143449
500 1 0.398365 0.49945 0.144415
508 1 0.599427 0.494953 0.143355
516 1 0.804819 0.49585 0.143742
522 1 0.101832 0.600644 0.145576
530 1 0.29884 0.599262 0.144516
538 1 0.497985 0.596666 0.145113
546 1 0.703095 0.600194 0.143915
554 1 0.902275 0.603566 0.144772
524 1 0.00094174 0.700581 0.144921
532 1 0.195762 0.695944 0.144418
540 1 0.399448 0.699821 0.144673
548 1 0.598955 0.697531 0.144965
556 1 0.795561 0.704051 0.144855
562 1 0.100836 0.79796 0.145182
570 1 0.297733 0.796574 0.144528
578 1 0.502046 0.798081 0.143322
586 1 0.701852 0.800049 0.144215
594 1 0.901871 0.797211 0.143902
564 1 0.00180953 0.899284 0.144403
572 1 0.198935 0.896305 0.144597
580 1 0.404738 0.901705 0.14372
588 1 0.601106 0.901474 0.144695
596 1 0.804331 0.898505 0.143192
407 2 0.0487907 0.0526958 0.1593
601 1 0.998914 0.00327965 0.173981
609 1 0.196512 0.99975 0.174419
415 2 0.246148 0.0487113 0.159691
423 2 0.451103 0.0520653 0.159753
617 1 0.400026 0.995504 0.17218
625 1 0.599603 0.0025588 0.17279
431 2 0.648717 0.049316 0.159967
633 1 0.797624 0.996037 0.173843
439 2 0.852502 0.048422 0.159335
405 2 0.149855 0.149065 0.15836
603 1 0.103625 0.10341 0.17338
611 1 0.295811 0.100227 0.174317
413 2 0.351818 0.151224 0.158648
619 1 0.495898 0.0960062 0.172295
421 2 0.546548 0.150781 0.158191
429 2 0.753747 0.147868 0.159209
627 1 0.696045 0.0956402 0.174022
635 1 0.903926 0.10231 0.174055
437 2 0.95042 0.150323 0.160208
641 1 0.998537 0.200267 0.174376
649 1 0.200838 0.202079 0.172505
657 1 0.404331 0.202718 0.172507
665 1 0.598148 0.203953 0.172315
673 1 0.804546 0.20294 0.174162
447 2 0.0503463 0.24804 0.159287
643 1 0.104727 0.299982 0.172605
455 2 0.253988 0.248692 0.158132
651 1 0.298282 0.299373 0.173161
463 2 0.448461 0.246186 0.159417
659 1 0.499441 0.298205 0.172287
471 2 0.646288 0.24675 0.158277
667 1 0.701962 0.299392 0.173563
479 2 0.850863 0.252187 0.1582
675 1 0.900485 0.295563 0.173964
445 2 0.149312 0.352978 0.158004
453 2 0.349625 0.352199 0.159336
461 2 0.549083 0.352559 0.158002
469 2 0.750104 0.353705 0.158449
477 2 0.949085 0.346454 0.159218
487 2 0.0483072 0.448204 0.160156
681 1 0.00193791 0.401071 0.17456
689 1 0.200162 0.396087 0.171972
495 2 0.245635 0.447756 0.157592
503 2 0.452525 0.452093 0.157729
697 1 0.400611 0.400807 0.172445
705 1 0.603484 0.39847 0.174263
511 2 0.652935 0.454185 0.159544
713 1 0.801675 0.404435 0.172908
519 2 0.853359 0.449647 0.159895
683 1 0.100254 0.496299 0.174026
691 1 0.297889 0.49895 0.172945
699 1 0.498382 0.498522 0.174042
707 1 0.70202 0.499836 0.173256
715 1 0.902898 0.50013 0.173012
721 1 0.00383737 0.599706 0.172573
485 2 0.147909 0.551977 0.159809
729 1 0.197124 0.602556 0.172843
493 2 0.351238 0.551487 0.159282
737 1 0.4004 0.599444 0.171999
501 2 0.551144 0.546432 0.159764
745 1 0.600271 0.603888 0.173701
509 2 0.752539 0.547907 0.158271
753 1 0.802943 0.602161 0.173485
517 2 0.948467 0.553138 0.159793
527 2 0.0528117 0.646933 0.159871
535 2 0.246264 0.65176 0.159876
543 2 0.454568 0.651502 0.159025
551 2 0.653969 0.648226 0.158987
559 2 0.848529 0.650027 0.157864
525 2 0.147125 0.749072 0.160176
723 1 0.0986986 0.699783 0.17393
731 1 0.304299 0.699349 0.1726
533 2 0.351418 0.754481 0.157767
739 1 0.500472 0.704546 0.173748
541 2 0.548075 0.750658 0.159711
549 2 0.74836 0.748727 0.159088
747 1 0.69673 0.701875 0.172048
755 1 0.899994 0.695528 0.17357
557 2 0.946041 0.754053 0.159155
761 1 0.00298077 0.804372 0.174528
769 1 0.198923 0.796982 0.173176
777 1 0.403046 0.803463 0.173061
785 1 0.59932 0.80135 0.17335
793 1 0.800916 0.799912 0.172723
567 2 0.0513855 0.853341 0.159415
763 1 0.102687 0.903474 0.174226
575 2 0.249231 0.847981 0.158244
771 1 0.301641 0.903892 0.172544
583 2 0.454793 0.847417 0.157575
779 1 0.50436 0.898869 0.172734
591 2 0.649435 0.848783 0.158865
787 1 0.699962 0.895872 0.173894
599 2 0.84775 0.852268 0.158344
795 1 0.895961 0.896135 0.172389
565 2 0.153414 0.950157 0.159674
573 2 0.351968 0.950875 0.159263
581 2 0.55031 0.948168 0.16003
589 2 0.747452 0.946607 0.158226
597 2 0.953462 0.954212 0.159216
608 2 0.146917 0.0541514 0.188704
616 2 0.350486 0.0501512 0.186313
624 2 0.547519 0.0471344 0.18841
632 2 0.750534 0.048523 0.187456
640 2 0.952482 0.0475537 0.188776
606 2 0.0480268 0.147035 0.188353
614 2 0.253432 0.153026 0.186933
622 2 0.452522 0.151818 0.188679
630 2 0.645448 0.148714 0.186437
638 2 0.84959 0.147832 0.188096
648 2 0.146505 0.247726 0.188955
656 2 0.351353 0.24728 0.188096
664 2 0.546329 0.250996 0.188806
672 2 0.749486 0.246831 0.188253
680 2 0.953159 0.252478 0.187866
646 2 0.0499833 0.34957 0.188584
654 2 0.246964 0.347606 0.186335
662 2 0.447239 0.348303 0.188705
670 2 0.651269 0.346199 0.187257
678 2 0.850734 0.349717 0.186922
688 2 0.14692 0.450289 0.188536
696 2 0.353711 0.449829 0.186724
704 2 0.552023 0.446125 0.187509
712 2 0.746613 0.447926 0.187132
720 2 0.949259 0.448564 0.186755
686 2 0.0461113 0.547419 0.188682
694 2 0.252746 0.54972 0.18733
702 2 0.452554 0.552608 0.186652
710 2 0.650771 0.549851 0.187577
718 2 0.85064 0.548402 0.187085
728 2 0.148351 0.649152 0.188267
736 2 0.352287 0.652367 0.186767
744 2 0.547063 0.651366 0.187115
752 2 0.749186 0.652573 0.18755
760 2 0.950971 0.65201 0.18714
726 2 0.0487093 0.752845 0.187192
734 2 0.246755 0.747977 0.188757
742 2 0.447922 0.747008 0.188109
750 2 0.646006 0.747889 0.187987
758 2 0.848945 0.74932 0.187342
768 2 0.151176 0.852339 0.186879
776 2 0.351632 0.851771 0.188203
784 2 0.553095 0.85213 0.188944
792 2 0.75085 0.847981 0.188027
800 2 0.946365 0.852871 0.187747
766 2 0.0527356 0.949998 0.18873
774 2 0.247914 0.949171 0.188924
782 2 0.454278 0.950052 0.187759
790 2 0.645548 0.946946 0.188056
798 2 0.851018 0.947655 0.187986
607 2 0.0525762 0.0480097 0.216183
602 1 0.0974386 0.998528 0.201012
610 1 0.300345 0.00108243 0.201307
615 2 0.249783 0.0488018 0.216997
623 2 0.447465 0.0481513 0.216192
618 1 0.503917 0.00234324 0.201338
631 2 0.651893 0.053955 0.21728
626 1 0.700184 0.998714 0.202047
634 1 0.89688 0.00384554 0.20325
639 2 0.848284 0.05463 0.217505
604 1 0.998761 0.0996869 0.200916
605 2 0.145877 0.147184 0.215472
612 1 0.200341 0.0967264 0.202834
613 2 0.347767 0.150331 0.216401
620 1 0.398082 0.101299 0.201936
621 2 0.545844 0.150794 0.216098
628 1 0.601667 0.0958554 0.202998
629 2 0.749125 0.147286 0.217005
636 1 0.802339 0.0984104 0.201539
637 2 0.946405 0.153211 0.216565
642 1 0.097398 0.198549 0.202294
650 1 0.296048 0.199964 0.202917
658 1 0.499126 0.201838 0.201141
666 1 0.701393 0.202002 0.202423
674 1 0.904239 0.200307 0.200899
644 1 0.00356943 0.299861 0.201478
647 2 0.0490453 0.248059 0.215625
652 1 0.202924 0.301149 0.200859
655 2 0.249543 0.250407 0.216484
660 1 0.397034 0.301545 0.201633
663 2 0.452517 0.246241 0.215351
668 1 0.595657 0.303111 0.201436
671 2 0.650154 0.250738 0.217364
676 1 0.795747 0.303262 0.201577
679 2 0.850609 0.248617 0.215441
645 2 0.151199 0.34822 0.215944
653 2 0.347121 0.352165 0.216647
661 2 0.552543 0.354397 0.215475
669 2 0.748161 0.346471 0.217417
677 2 0.950583 0.352122 0.215947
687 2 0.0483326 0.45353 0.215591
682 1 0.100508 0.402426 0.203453
690 1 0.301638 0.403248 0.202278
695 2 0.253885 0.449008 0.216675
703 2 0.452516 0.451789 0.217654
698 1 0.498765 0.398546 0.202863
711 2 0.648089 0.45388 0.216692
706 1 0.698169 0.399778 0.202107
714 1 0.898761 0.399009 0.201632
719 2 0.852255 0.451989 0.217656
684 1 0.995476 0.500211 0.202308
692 1 0.201857 0.50081 0.202831
700 1 0.401817 0.503464 0.201342
708 1 0.602813 0.501847 0.203198
716 1 0.802629 0.497433 0.202488
685 2 0.153447 0.547779 0.215459
722 1 0.0955746 0.600237 0.202679
730 1 0.299062 0.596608 0.202059
693 2 0.351665 0.546589 0.215595
738 1 0.496881 0.602804 0.200848
701 2 0.548654 0.550608 0.217523
709 2 0.748193 0.547988 0.216634
746 1 0.702186 0.604199 0.20277
754 1 0.899982 0.59589 0.202778
717 2 0.950546 0.55091 0.217122
727 2 0.0467459 0.654312 0.215973
735 2 0.249871 0.65047 0.215553
743 2 0.452974 0.653173 0.21652
751 2 0.646655 0.649831 0.217841
759 2 0.848981 0.64978 0.215595
724 1 0.996319 0.700965 0.201689
725 2 0.150715 0.749262 0.216868
732 1 0.201103 0.700331 0.20259
733 2 0.352274 0.747897 0.217555
740 1 0.402692 0.700801 0.201836
741 2 0.55106 0.751261 0.217617
748 1 0.601989 0.701159 0.20282
749 2 0.7461 0.748908 0.217066
756 1 0.797129 0.702063 0.201368
757 2 0.94639 0.750541 0.216805
762 1 0.103032 0.797538 0.203207
770 1 0.300789 0.800152 0.20127
778 1 0.503464 0.795247 0.201009
786 1 0.697383 0.797256 0.201483
794 1 0.895211 0.800044 0.202079
764 1 0.998727 0.899363 0.202761
767 2 0.0488156 0.845875 0.215802
772 1 0.195473 0.90202 0.20235
775 2 0.247616 0.854236 0.215828
780 1 0.398697 0.896974 0.203319
783 2 0.452605 0.846281 0.216113
788 1 0.59681 0.904291 0.203227
791 2 0.651488 0.852324 0.216846
796 1 0.801349 0.903902 0.200838
799 2 0.84602 0.852952 0.215976
765 2 0.151677 0.946704 0.216322
773 2 0.345784 0.946769 0.215851
781 2 0.553202 0.951442 0.215968
789 2 0.748843 0.947031 0.215812
797 2 0.952449 0.952866 0.217269
801 1 0.996137 1.00015 0.229859
809 1 0.195699 0.996221 0.229637
817 1 0.396934 0.999692 0.231299
825 1 0.599659 0.998154 0.231409
833 1 0.802068 0.00276944 0.230118
803 1 0.101215 0.102413 0.230678
811 1 0.303708 0.0958757 0.229479
819 1 0.496605 0.0982221 0.230552
827 1 0.702477 0.101931 0.230246
835 1 0.89928 0.0997255 0.230387
841 1 0.999978 0.199723 0.231673
849 1 0.19558 0.196934 0.232043
857 1 0.399514 0.201958 0.230196
865 1 0.599258 0.201289 0.230369
873 1 0.801679 0.199069 0.229733
843 1 0.0979964 0.304018 0.2303
851 1 0.301611 0.298182 0.232077
859 1 0.503703 0.295811 0.231653
867 1 0.695972 0.297612 0.230943
875 1 0.898419 0.303376 0.231857
881 1 0.00390701 0.400433 0.230203
889 1 0.19695 0.403584 0.229733
897 1 0.396621 0.39776 0.229666
905 1 0.60263 0.404042 0.230024
913 1 0.803451 0.397201 0.230706
883 1 0.0980495 0.495528 0.231839
891 1 0.297867 0.502989 0.23161
899 1 0.503719 0.498992 0.23189
907 1 0.700497 0.497943 0.23172
915 1 0.896513 0.499608 0.229985
921 1 0.00220518 0.600582 0.23203
929 1 0.203768 0.599374 0.230477
937 1 0.400589 0.59537 0.231061
945 1 0.597729 0.598548 0.232243
953 1 0.802543 0.596795 0.230255
923 1 0.0957814 0.701591 0.229632
931 1 0.299722 0.702255 0.231898
939 1 0.497768 0.701336 0.230003
947 1 0.700974 0.697261 0.232086
955 1 0.897498 0.697554 0.231475
961 1 0.999663 0.798862 0.231427
969 1 0.197982 0.804147 0.231302
977 1 0.39746 0.800383 0.231922
985 1 0.601616 0.798429 0.230562
993 1 0.797413 0.797435 0.23122
963 1 0.0960395 0.897053 0.231946
971 1 0.301959 0.898389 0.231689
979 1 0.503029 0.896933 0.230727
987 1 0.699059 0.897332 0.230783
995 1 0.898471 0.89706 0.229719
802 1 0.101649 0.00360178 0.260549
808 2 0.149248 0.0486223 0.245453
810 1 0.301195 0.996092 0.259492
816 2 0.348147 0.0505117 0.244406
818 1 0.500976 0.00252933 0.260767
824 2 0.548861 0.0471851 0.244605
826 1 0.700834 0.000929232 0.259265
832 2 0.746102 0.0470794 0.244801
834 1 0.897207 0.00190322 0.25996
840 2 0.950591 0.0501543 0.244274
804 1 0.00188044 0.0960319 0.259979
806 2 0.0490342 0.149934 0.245656
812 1 0.196443 0.10168 0.259499
814 2 0.246903 0.145892 0.244066
820 1 0.401656 0.0980053 0.260293
822 2 0.446707 0.146088 0.245963
828 1 0.602076 0.0998893 0.259906
830 2 0.646728 0.148657 0.244587
836 1 0.79499 0.100303 0.258206
838 2 0.845914 0.15055 0.244097
842 1 0.103195 0.202181 0.259524
850 1 0.296215 0.199177 0.258664
858 1 0.503429 0.20419 0.260644
866 1 0.696615 0.203465 0.258851
874 1 0.903751 0.196342 0.259167
844 1 0.997726 0.296796 0.259583
848 2 0.150273 0.253998 0.245755
852 1 0.200763 0.300169 0.259428
856 2 0.347092 0.2513 0.245477
860 1 0.397074 0.297326 0.260318
864 2 0.548406 0.247204 0.244215
868 1 0.598064 0.301685 0.260188
872 2 0.749779 0.247626 0.244013
876 1 0.803577 0.298404 0.259
880 2 0.954056 0.250428 0.245297
846 2 0.0536659 0.354441 0.244074
854 2 0.250202 0.353127 0.244991
862 2 0.446218 0.345957 0.246237
870 2 0.649611 0.345924 0.245108
878 2 0.849661 0.351587 0.245783
882 1 0.0998805 0.401418 0.26093
888 2 0.151627 0.453861 0.245725
890 1 0.300484 0.400117 0.260185
896 2 0.347851 0.448834 0.245981
898 1 0.500531 0.397862 0.260434
904 2 0.547417 0.452581 0.245358
906 1 0.695582 0.400981 0.259016
912 2 0.753645 0.448645 0.246065
914 1 0.896565 0.396528 0.259885
920 2 0.949112 0.453565 0.245092
884 1 0.00121219 0.495749 0.260296
892 1 0.201327 0.503113 0.25919
900 1 0.39606 0.504348 0.260725
908 1 0.602543 0.496411 0.25905
916 1 0.804008 0.499263 0.259639
886 2 0.0491205 0.551805 0.244484
922 1 0.0971583 0.604219 0.259752
894 2 0.252439 0.549532 0.244135
930 1 0.30076 0.595778 0.260128
902 2 0.453948 0.54728 0.245742
938 1 0.4962 0.595933 0.260159
910 2 0.650166 0.553073 0.244041
946 1 0.700075 0.601135 0.260607
918 2 0.851379 0.549187 0.245619
954 1 0.903379 0.596622 0.259342
928 2 0.14952 0.652251 0.244019
936 2 0.349939 0.645762 0.244587
944 2 0.550509 0.652784 0.246266
952 2 0.748272 0.650465 0.244532
960 2 0.949868 0.646568 0.244466
924 1 0.997303 0.698619 0.260728
926 2 0.0515002 0.751423 0.244483
932 1 0.202095 0.698541 0.259653
934 2 0.252932 0.751828 0.245474
940 1 0.400687 0.701955 0.260487
942 2 0.453709 0.753624 0.244241
948 1 0.603146 0.704388 0.260505
950 2 0.646817 0.753208 0.244728
956 1 0.798229 0.700625 0.258703
958 2 0.845943 0.751727 0.245861
962 1 0.096126 0.795674 0.259423
970 1 0.301087 0.803144 0.260126
978 1 0.498811 0.797968 0.260762
986 1 0.698833 0.800632 0.258621
994 1 0.896215 0.802669 0.259521
964 1 0.000605837 0.900074 0.260098
968 2 0.15155 0.853619 0.244832
972 1 0.198864 0.903935 0.25874
976 2 0.34959 0.851475 0.246395
980 1 0.399019 0.897678 0.258898
984 2 0.547949 0.853236 0.24564
988 1 0.601081 0.904773 0.258939
992 2 0.749219 0.851427 0.245563
996 1 0.802159 0.898408 0.258813
1000 2 0.948554 0.853398 0.245635
966 2 0.0523607 0.951989 0.245329
974 2 0.251552 0.95215 0.245325
982 2 0.450704 0.953094 0.246341
990 2 0.652823 0.954226 0.244045
998 2 0.85274 0.948832 0.246155
807 2 0.0495928 0.0457143 0.274036