ITEM: TIMESTEP
100
ITEM: NUMBER OF ATOMS
1250
ITEM: BOX BOUNDS pp pp pp
0.0000000000000000e+00 3.4144350820000000e+01
0.0000000000000000e+00 3.4144350820000000e+01
-1.3657740327999999e+01 5.4630961311999997e+01
ITEM: ATOMS id type xs ys zs
1 1 0 0 0
8 2 0.15 0.05 0.025
9 1 0.2 0 0
16 2 0.35 0.05 0.025
17 1 0.4 0 0
24 2 0.55 0.05 0.025
25 1 0.6 0 0
32 2 0.75 0.05 0.025
33 1 0.8 0 0
40 2 0.95 0.05 0.025
6 2 0.05 0.15 0.025
3 1 0.1 0.1 0
11 1 0.3 0.1 0
14 2 0.25 0.15 0.025
22 2 0.45 0.15 0.025
19 1 0.5 0.1 0
30 2 0.65 0.15 0.025
27 1 0.7 0.1 0
35 1 0.9 0.1 0
38 2 0.85 0.15 0.025
41 1 0 0.2 0
49 1 0.2 0.2 0
57 1 0.4 0.2 0
65 1 0.6 0.2 0
73 1 0.8 0.2 0
43 1 0.1 0.3 0
48 2 0.15 0.25 0.025
51 1 0.3 0.3 0
56 2 0.35 0.25 0.025
59 1 0.5 0.3 0
64 2 0.55 0.25 0.025
67 1 0.7 0.3 0
72 2 0.75 0.25 0.025
75 1 0.9 0.3 0
80 2 0.95 0.25 0.025
46 2 0.05 0.35 0.025
54 2 0.25 0.35 0.025
62 2 0.45 0.35 0.025
70 2 0.65 0.35 0.025
78 2 0.85 0.35 0.025
81 1 0 0.4 0
88 2 0.15 0.45 0.025
89 1 0.2 0.4 0
96 2 0.35 0.45 0.025
97 1 0.4 0.4 0
104 2 0.55 0.45 0.025
105 1 0.6 0.4 0
112 2 0.75 0.45 0.025
113 1 0.8 0.4 0
120 2 0.95 0.45 0.025
83 1 0.1 0.5 0
91 1 0.3 0.5 0
99 1 0.5 0.5 0
107 1 0.7 0.5 0
115 1 0.9 0.5 0
86 2 0.05 0.55 0.025
121 1 0 0.6 0
129 1 0.2 0.6 0
94 2 0.25 0.55 0.025
102 2 0.45 0.55 0.025
137 1 0.4 0.6 0
145 1 0.6 0.6 0
110 2 0.65 0.55 0.025
153 1 0.8 0.6 0
118 2 0.85 0.55 0.025
128 2 0.15 0.65 0.025
136 2 0.35 0.65 0.025
144 2 0.55 0.65 0.025
152 2 0.75 0.65 0.025
160 2 0.95 0.65 0.025
126 2 0.05 0.75 0.025
123 1 0.1 0.7 0
131 1 0.3 0.7 0
134 2 0.25 0.75 0.025
142 2 0.45 0.75 0.025
139 1 0.5 0.7 0
150 2 0.65 0.75 0.025
147 1 0.7 0.7 0
155 1 0.9 0.7 0
158 2 0.85 0.75 0.025
161 1 0 0.8 0
169 1 0.2 0.8 0
177 1 0.4 0.8 0
185 1 0.6 0.8 0
193 1 0.8 0.8 0
163 1 0.1 0.9 0
168 2 0.15 0.85 0.025
171 1 0.3 0.9 0
176 2 0.35 0.85 0.025
179 1 0.5 0.9 0
184 2 0.55 0.85 0.025
187 1 0.7 0.9 0
192 2 0.75 0.85 0.025
195 1 0.9 0.9 0
200 2 0.95 0.85 0.025
166 2 0.05 0.95 0.025
174 2 0.25 0.95 0.025
182 2 0.45 0.95 0.025
190 2 0.65 0.95 0.025
198 2 0.85 0.95 0.025
7 2 0.0500485 0.0502815 0.0750099
2 1 0.1 0 0.05
10 1 0.3 0 0.05
15 2 0.249818 0.0500078 0.0751285
23 2 0.450171 0.050107 0.0751445
18 1 0.5 0 0.05
31 2 0.650097 0.0499849 0.0750228
26 1 0.7 0 0.05
34 1 0.9 0 0.05
39 2 0.850241 0.050083 0.0750236
4 1 0 0.1 0.05
5 2 0.14983 0.15009 0.0748801
12 1 0.2 0.1 0.05
13 2 0.349901 0.150153 0.0751544
20 1 0.4 0.1 0.05
21 2 0.550142 0.150222 0.0748801
28 1 0.6 0.1 0.05
29 2 0.750288 0.149844 0.0749031
36 1 0.8 0.1 0.05
37 2 0.950149 0.149755 0.0751377
42 1 0.1 0.2 0.05
50 1 0.3 0.2 0.05
58 1 0.5 0.2 0.05
66 1 0.7 0.2 0.05
74 1 0.9 0.2 0.05
44 1 0 0.3 0.05
47 2 0.0497458 0.250205 0.07483
52 1 0.2 0.3 0.05
55 2 0.249887 0.250205 0.0751345
60 1 0.4 0.3 0.05
63 2 0.449913 0.249822 0.075049
68 1 0.6 0.3 0.05
71 2 0.650292 0.249703 0.074986
76 1 0.8 0.3 0.05
79 2 0.849824 0.250288 0.0749521
45 2 0.149643 0.350229 0.0749267
53 2 0.349863 0.34998 0.0748997
61 2 0.550306 0.349971 0.0750101
69 2 0.750108 0.349705 0.074986
77 2 0.949973 0.350164 0.0750887
87 2 0.0497507 0.449763 0.0749671
82 1 0.1 0.4 0.05
90 1 0.3 0.4 0.05
95 2 0.250202 0.450113 0.0750802
103 2 0.449921 0.450056 0.0748756
98 1 0.5 0.4 0.05
111 2 0.6501 0.449648 0.0750315
106 1 0.7 0.4 0.05
114 1 0.9 0.4 0.05
119 2 0.850046 0.449607 0.0749057
84 1 0 0.5 0.05
92 1 0.2 0.5 0.05
100 1 0.4 0.5 0.05
108 1 0.6 0.5 0.05
116 1 0.8 0.5 0.05
85 2 0.149696 0.549921 0.0749743
122 1 0.1 0.6 0.05
130 1 0.3 0.6 0.05
93 2 0.349933 0.550232 0.0750866
138 1 0.5 0.6 0.05
101 2 0.550132 0.550339 0.0751396
109 2 0.750263 0.549741 0.0751004
146 1 0.7 0.6 0.05
154 1 0.9 0.6 0.05
117 2 0.950017 0.550294 0.0749518
127 2 0.0503237 0.650241 0.0748643
135 2 0.24979 0.649869 0.0750745
143 2 0.450063 0.650296 0.0749184
151 2 0.649787 0.650062 0.0748868
159 2 0.850053 0.650165 0.0751107
124 1 0 0.7 0.05
125 2 0.150407 0.750098 0.07515
132 1 0.2 0.7 0.05
133 2 0.350065 0.749817 0.0749222
140 1 0.4 0.7 0.05
141 2 0.549791 0.750212 0.0751454
148 1 0.6 0.7 0.05
149 2 0.749911 0.750043 0.0749827
156 1 0.8 0.7 0.05
157 2 0.950029 0.750228 0.0750064
162 1 0.1 0.8 0.05
170 1 0.3 0.8 0.05
178 1 0.5 0.8 0.05
186 1 0.7 0.8 0.05
194 1 0.9 0.8 0.05
164 1 0 0.9 0.05
167 2 0.0499648 0.850299 0.074867
172 1 0.2 0.9 0.05
175 2 0.250289 0.850032 0.0750985
180 1 0.4 0.9 0.05
183 2 0.450203 0.850283 0.0749559
188 1 0.6 0.9 0.05
191 2 0.650185 0.849671 0.0751388
196 1 0.8 0.9 0.05
199 2 0.850232 0.849932 0.0751074
165 2 0.149637 0.949828 0.0751416
173 2 0.349966 0.949932 0.0751175
181 2 0.549649 0.949825 0.0749685
189 2 0.750264 0.950071 0.0748845
197 2 0.949751 0.949852 0.0749517
201 1 5.7625e-05 0.000193237 0.100038
209 1 0.199932 -0.000256815 0.0999819
217 1 0.399714 0.000352774 0.100043
225 1 0.599585 -0.00019546 0.099961
233 1 0.800291 -8.24207e-05 0.099831
203 1 0.100251 0.100126 0.0998295
211 1 0.299991 0.100156 0.100016
219 1 0.500264 0.100382 0.0998207
227 1 0.700146 0.100211 0.0998365
235 1 0.900127 0.10006 0.0998937
241 1 6.91726e-05 0.200175 0.0999706
249 1 0.200239 0.199723 0.0999532
257 1 0.40011 0.200038 0.100122
265 1 0.599896 0.200248 0.100031
273 1 0.799837 0.20019 0.0998556
243 1 0.0998256 0.299672 0.10002
251 1 0.299832 0.299928 0.0998496
259 1 0.500007 0.29976 0.0999237
267 1 0.700281 0.299863 0.100029
275 1 0.90013 0.300183 0.100063
281 1 -3.44475e-06 0.399701 0.0999529
289 1 0.200003 0.399965 0.100006
297 1 0.400119 0.40005 0.0998448
305 1 0.600134 0.399646 0.10018
313 1 0.800081 0.399946 0.100087
283 1 0.10002 0.500113 0.0998449
291 1 0.299723 0.500007 0.10006
299 1 0.500253 0.500257 0.100113
307 1 0.700148 0.500161 0.0999522
315 1 0.899831 0.499699 0.0999995
321 1 -0.000107134 0.600432 0.100018
329 1 0.199681 0.599817 0.100023
337 1 0.400245 0.600266 0.100174
345 1 0.600376 0.599739 0.0999881
353 1 0.799684 0.599972 0.0999197
323 1 0.100057 0.70004 0.0998635
331 1 0.30014 0.699917 0.0998368
339 1 0.499707 0.70036 0.100155
347 1 0.700234 0.699838 0.100118
355 1 0.89994 0.700082 0.100027
361 1 0.000181099 0.800138 0.0999753
369 1 0.200444 0.800328 0.0999842
377 1 0.399778 0.800236 0.100012
385 1 0.599936 0.800102 0.100171
393 1 0.799755 0.799998 0.100079
363 1 0.0998066 0.899661 0.0999215
371 1 0.300027 0.9 0.100193
379 1 0.499984 0.89972 0.100077
387 1 0.700282 0.900064 0.0999168
395 1 0.899855 0.899735 0.100032
202 1 0.100112 9.45425e-05 0.150084
208 2 0.149743 0.0502225 0.124861
210 1 0.299721 0.000222887 0.149966
216 2 0.349923 0.0502805 0.124905
218 1 0.499845 -2.77426e-05 0.149939
224 2 0.549676 0.0502509 0.125149
226 1 0.699872 -0.000212193 0.149865
232 2 0.750081 0.0501439 0.124962
234 1 0.900405 -0.000329811 0.149864
240 2 0.950019 0.0502384 0.124885
204 1 -0.000222421 0.100051 0.149962
206 2 0.0502467 0.150086 0.124914
212 1 0.199911 0.100172 0.150129
214 2 0.25005 0.15019 0.125037
220 1 0.399957 0.0996443 0.149867
222 2 0.449882 0.149798 0.124849
228 1 0.599804 0.100202 0.15003
230 2 0.650093 0.149928 0.12486
236 1 0.799857 0.0998323 0.149939
238 2 0.849658 0.14985 0.125114
242 1 0.100385 0.199912 0.150022
250 1 0.300182 0.199902 0.150186
258 1 0.499691 0.199977 0.149983
266 1 0.700093 0.19998 0.149809
274 1 0.899627 0.199829 0.150064
244 1 3.44752e-06 0.299783 0.149845
248 2 0.149883 0.250174 0.124886
252 1 0.200014 0.300298 0.149927
256 2 0.350066 0.24999 0.125002
260 1 0.400291 0.299672 0.150147
264 2 0.54997 0.250034 0.125028
268 1 0.600043 0.300214 0.150033
272 2 0.750163 0.249741 0.12499
276 1 0.800055 0.300213 0.150005
280 2 0.94993 0.249663 0.124899
246 2 0.0503154 0.349749 0.12491
254 2 0.249837 0.350101 0.124858
262 2 0.44984 0.350008 0.125126
270 2 0.650255 0.35017 0.125037
278 2 0.849915 0.350275 0.124908
282 1 0.100111 0.399759 0.150093
288 2 0.150184 0.449799 0.125102
290 1 0.29977 0.399619 0.150138
296 2 0.349952 0.449977 0.125179
298 1 0.500092 0.399834 0.150119
304 2 0.550007 0.449904 0.124972
306 1 0.700098 0.399773 0.149946
312 2 0.750182 0.450025 0.124935
314 1 0.899788 0.399929 0.150028
320 2 0.949856 0.450111 0.125081
284 1 1.2047e-05 0.499848 0.14995
292 1 0.200207 0.499735 0.149946
300 1 0.400214 0.50036 0.14997
308 1 0.600058 0.499901 0.149944
316 1 0.799944 0.500222 0.149898
286 2 0.0499903 0.549873 0.124863
322 1 0.100234 0.600059 0.150114
294 2 0.249718 0.549987 0.124863
330 1 0.300063 0.600255 0.149964
302 2 0.450233 0.550266 0.125094
338 1 0.500293 0.599803 0.149862
310 2 0.649939 0.550031 0.12492
346 1 0.700052 0.600277 0.149939
318 2 0.849837 0.55015 0.124796
354 1 0.899749 0.59953 0.15015
328 2 0.150077 0.650259 0.124969
336 2 0.349878 0.650199 0.125144
344 2 0.54995 0.6497 0.124888
352 2 0.749911 0.649925 0.124985
360 2 0.949594 0.650117 0.124987
324 1 0.000326395 0.699729 0.149914
326 2 0.0497726 0.749865 0.124855
332 1 0.200298 0.700054 0.15006
334 2 0.250258 0.750196 0.125033
340 1 0.399832 0.699688 0.150056
342 2 0.450107 0.750199 0.125231
348 1 0.599955 0.699712 0.150002
350 2 0.650345 0.749979 0.125171
356 1 0.800282 0.700137 0.150148
358 2 0.850252 0.750084 0.124868
362 1 0.100125 0.800105 0.149954
370 1 0.29996 0.799877 0.150094
378 1 0.500243 0.800163 0.15017
386 1 0.70043 0.799963 0.150174
394 1 0.899852 0.799666 0.150042
364 1 0.000273192 0.899987 0.149952
368 2 0.150079 0.849921 0.12487
372 1 0.19964 0.899934 0.150122
376 2 0.349761 0.850159 0.125154
380 1 0.400343 0.900063 0.150021
384 2 0.550367 0.850359 0.124965
388 1 0.600427 0.899996 0.150014
392 2 0.750092 0.850286 0.125178
396 1 0.800222 0.89982 0.150221
400 2 0.950212 0.849765 0.125155
366 2 0.0500881 0.95029 0.124936
374 2 0.249658 0.949703 0.125008
382 2 0.450037 0.950332 0.124817
390 2 0.64969 0.949904 0.124884
398 2 0.850198 0.950104 0.124963
207 2 0.0500676 0.049997 0.174916
215 2 0.250033 0.0497878 0.174925
223 2 0.45026 0.0496617 0.174945
231 2 0.649888 0.0501072 0.175004
239 2 0.850034 0.0496804 0.17477
205 2 0.15023 0.150083 0.175073
213 2 0.350211 0.149822 0.175164
221 2 0.549626 0.150178 0.175106
229 2 0.749986 0.149818 0.174875
237 2 0.949663 0.149647 0.175055
247 2 0.0502623 0.250035 0.17505
255 2 0.249872 0.249775 0.175079
263 2 0.449836 0.249899 0.174954
271 2 0.650276 0.249711 0.175019
279 2 0.849713 0.250083 0.17487
245 2 0.149822 0.350211 0.174898
253 2 0.350332 0.34973 0.175162
261 2 0.55006 0.349867 0.174954
269 2 0.750066 0.350001 0.174861
277 2 0.950065 0.34994 0.174948
287 2 0.0500883 0.450017 0.175001
295 2 0.249672 0.450232 0.175184
303 2 0.450173 0.450081 0.174975
311 2 0.649789 0.44991 0.174882
319 2 0.84982 0.450049 0.175046
285 2 0.149788 0.549877 0.175167
293 2 0.350297 0.550304 0.174902
301 2 0.549975 0.549931 0.17506
309 2 0.749908 0.549842 0.175139
317 2 0.950325 0.549645 0.175099
327 2 0.0500304 0.650016 0.174866
335 2 0.250143 0.649659 0.175171
343 2 0.450274 0.649793 0.174839
351 2 0.649736 0.650175 0.175067
359 2 0.850186 0.649771 0.175017
325 2 0.150171 0.750208 0.174864
333 2 0.350079 0.749606 0.175019
341 2 0.5501 0.7498 0.175084
349 2 0.750296 0.750192 0.175196
357 2 0.950283 0.749735 0.174807
367 2 0.0502882 0.849747 0.174896
375 2 0.249665 0.849708 0.174885
383 2 0.449866 0.849963 0.174984
391 2 0.65041 0.850095 0.175126
399 2 0.850443 0.849753 0.175222
365 2 0.150055 0.949956 0.174958
373 2 0.349726 0.950125 0.174986
381 2 0.549896 0.949799 0.174856
389 2 0.749665 0.950151 0.175111
397 2 0.949781 0.949648 0.175035
408 2 0.150027 0.0502209 0.225187
409 1 0.199839 2.27682e-05 0.200134
416 2 0.349775 0.0501398 0.225114
424 2 0.550286 0.0497052 0.225016
432 2 0.750034 0.0503463 0.224941
440 2 0.949667 0.0496432 0.22515
406 2 0.0499446 0.149856 0.225005
403 1 0.100055 0.100105 0.200146
411 1 0.29958 0.0998637 0.200155
414 2 0.249871 0.150333 0.225088
422 2 0.449765 0.14988 0.22493
419 1 0.500121 0.099877 0.200072
430 2 0.64975 0.150403 0.224877
427 1 0.699631 0.100304 0.199915
435 1 0.899734 0.0996755 0.200016
438 2 0.850263 0.150059 0.225139
441 1 -0.00024141 0.199644 0.199918
449 1 0.199969 0.199939 0.200132
457 1 0.399916 0.200364 0.20019
465 1 0.599595 0.200347 0.200129
473 1 0.799996 0.200083 0.199875
443 1 0.0999196 0.300139 0.200022
448 2 0.150078 0.249947 0.224873
451 1 0.300043 0.299606 0.200048
456 2 0.34996 0.249965 0.225182
459 1 0.499928 0.300018 0.199868
464 2 0.549886 0.250069 0.225072
467 1 0.700036 0.299695 0.200047
472 2 0.75018 0.249951 0.22491
475 1 0.899928 0.29973 0.200029
480 2 0.950309 0.250219 0.224959
446 2 0.0501852 0.349717 0.224894
454 2 0.249839 0.349905 0.224878
462 2 0.45 0.350292 0.225046
470 2 0.650166 0.349617 0.225029
478 2 0.849914 0.350206 0.224877
481 1 0.000338093 0.399904 0.199899
488 2 0.149832 0.450207 0.225085
489 1 0.199559 0.399835 0.200142
496 2 0.349798 0.449995 0.22503
497 1 0.399932 0.400345 0.200162
504 2 0.549709 0.449551 0.225142
505 1 0.600021 0.399974 0.200063
512 2 0.74993 0.449871 0.225069
513 1 0.799962 0.39993 0.199861
520 2 0.950184 0.450024 0.224843
483 1 0.0997236 0.500243 0.200154
491 1 0.300071 0.500115 0.199987
499 1 0.500317 0.499804 0.200124
507 1 0.699657 0.500098 0.19988
515 1 0.899728 0.499803 0.200082
486 2 0.0500682 0.550057 0.225054
521 1 0.000379363 0.599711 0.199942
529 1 0.199968 0.599865 0.200154
494 2 0.249717 0.550202 0.225014
502 2 0.44975 0.550231 0.225008
537 1 0.399822 0.60001 0.199876
545 1 0.600105 0.599788 0.199853
510 2 0.649716 0.54974 0.22514
553 1 0.799928 0.600094 0.199995
518 2 0.849861 0.550164 0.225157
528 2 0.149923 0.649772 0.224964
536 2 0.350143 0.649904 0.224888
544 2 0.550323 0.650187 0.224937
552 2 0.750226 0.650248 0.224834
560 2 0.950341 0.649678 0.224993
526 2 0.0499029 0.750051 0.224997
523 1 0.100341 0.700278 0.199916
531 1 0.299723 0.699667 0.200143
534 2 0.249675 0.749773 0.225134
542 2 0.4497 0.750232 0.225164
539 1 0.500184 0.700331 0.200123
550 2 0.650281 0.749671 0.225001
547 1 0.69996 0.700255 0.199902
555 1 0.900319 0.700114 0.199884
558 2 0.850134 0.749794 0.224883
561 1 0.000302313 0.800034 0.199825
569 1 0.199868 0.799823 0.200144
577 1 0.400136 0.800048 0.199994
585 1 0.600186 0.800232 0.200134
593 1 0.800426 0.800227 0.200131
563 1 0.100323 0.899722 0.199992
568 2 0.150058 0.850198 0.225063
571 1 0.299692 0.899756 0.199905
576 2 0.349926 0.850006 0.225117
579 1 0.500091 0.899731 0.199855
584 2 0.550224 0.84992 0.224962
587 1 0.700084 0.900044 0.200181
592 2 0.750217 0.849949 0.224879
595 1 0.900228 0.900332 0.200175
600 2 0.950051 0.85018 0.224871
566 2 0.0499798 0.949753 0.225012
574 2 0.250333 0.949796 0.224939
417 1 0.399794 0.999818 0.200141
582 2 0.450166 0.949685 0.224849
425 1 0.599806 1.00005 0.199871
590 2 0.649908 0.949711 0.224965
433 1 0.799677 1.00024 0.199887
598 2 0.849832 0.950189 0.224863
401 1 0.999786 0.999897 0.200075
402 1 0.0997782 -0.000279392 0.249937
410 1 0.300122 0.000236076 0.250082
426 1 0.699691 4.97046e-05 0.24985
404 1 -0.000379145 0.100135 0.249895
412 1 0.200225 0.10017 0.250151
420 1 0.40022 0.100236 0.250023
428 1 0.600108 0.100353 0.249885
436 1 0.799974 0.0999736 0.250086
442 1 0.0997415 0.200278 0.250107
450 1 0.300167 0.200122 0.250008
458 1 0.499729 0.20008 0.250005
466 1 0.70005 0.199639 0.249971
474 1 0.900119 0.199898 0.250175
444 1 -1.6554e-05 0.30017 0.249943
452 1 0.200099 0.300194 0.250141
460 1 0.400363 0.299891 0.249924
468 1 0.599684 0.300075 0.250077
476 1 0.800013 0.299806 0.250027
482 1 0.100096 0.399901 0.24985
490 1 0.300018 0.400138 0.24992
498 1 0.499836 0.400241 0.250153
506 1 0.699638 0.399793 0.249992
514 1 0.899899 0.400153 0.249982
484 1 1.7816e-05 0.499845 0.250104
492 1 0.199815 0.499832 0.249874
500 1 0.399845 0.499976 0.249979
508 1 0.599904 0.499543 0.249869
516 1 0.800409 0.499619 0.249918
522 1 0.100138 0.600035 0.250141
530 1 0.299888 0.599994 0.250013
538 1 0.499939 0.59976 0.250069
546 1 0.700296 0.599999 0.249892
554 1 0.900179 0.600279 0.250035
524 1 7.08351e-05 0.700034 0.250092
532 1 0.199583 0.699673 0.250012
540 1 0.399956 0.699956 0.250028
548 1 0.599959 0.699824 0.250092
556 1 0.799655 0.700347 0.25003
562 1 0.100063 0.799869 0.250097
570 1 0.29979 0.799728 0.249986
578 1 0.500223 0.799828 0.249827
586 1 0.700168 0.800005 0.249949
594 1 0.90011 0.79984 0.249894
564 1 0.000122599 0.899947 0.249998
572 1 0.199964 0.899752 0.250009
580 1 0.400391 0.900128 0.249904
588 1 0.600068 0.900093 0.250037
596 1 0.800318 0.899905 0.249798
418 1 0.500267 0.999665 0.250036
434 1 0.899648 0.999646 0.249928
407 2 0.0499062 0.0502607 0.275044
609 1 0.199691 7.8509e-06 0.300205
415 2 0.249672 0.0498732 0.275137
423 2 0.450083 0.0500969 0.275083
617 1 0.400058 -0.000361392 0.299861
431 2 0.64986 0.049969 0.275113
439 2 0.850202 0.0498614 0.275088
405 2 0.149995 0.149986 0.27492
603 1 0.100267 0.100299 0.300013
611 1 0.299687 0.100042 0.300104
413 2 0.350134 0.150094 0.27499
619 1 0.499698 0.0997051 0.299897
421 2 0.549685 0.150057 0.274902
429 2 0.750293 0.149817 0.275094
627 1 0.699718 0.0996636 0.300094
635 1 0.900337 0.100125 0.300131
437 2 0.950061 0.15004 0.275195
641 1 -8.43636e-05 0.200016 0.300167
649 1 0.200047 0.200193 0.299889
657 1 0.400352 0.200167 0.29992
665 1 0.599741 0.200322 0.299874
673 1 0.800392 0.200229 0.300113
447 2 0.0499686 0.249893 0.275071
643 1 0.100372 0.30002 0.299917
455 2 0.250335 0.249908 0.274889
651 1 0.299912 0.299911 0.299985
463 2 0.449888 0.24971 0.275057
659 1 0.499926 0.299888 0.299868
471 2 0.649738 0.249764 0.274902
667 1 0.700171 0.299883 0.300001
479 2 0.85009 0.250167 0.274914
675 1 0.900044 0.299626 0.300092
445 2 0.149935 0.350246 0.274861
453 2 0.349988 0.350141 0.275033
461 2 0.54992 0.350253 0.2749
469 2 0.750028 0.350302 0.274941
477 2 0.949916 0.349749 0.275062
487 2 0.0499089 0.449794 0.275165
681 1 0.000127071 0.399998 0.300174
689 1 0.199935 0.399737 0.299832
495 2 0.249635 0.449816 0.274808
503 2 0.450178 0.450207 0.274849
697 1 0.400133 0.400072 0.299871
705 1 0.600326 0.399857 0.300106
511 2 0.650232 0.450321 0.275095
713 1 0.800135 0.400352 0.299948
519 2 0.850315 0.45 0.275138
683 1 0.0999798 0.499727 0.300123
691 1 0.299822 0.499864 0.29992
699 1 0.499906 0.499833 0.300111
707 1 0.700195 0.500042 0.299998
715 1 0.90025 0.500024 0.299966
721 1 0.00030844 0.599974 0.29993
485 2 0.149845 0.550087 0.275127
729 1 0.199768 0.600189 0.299974
493 2 0.350067 0.550096 0.275045
737 1 0.400076 0.600004 0.299815
501 2 0.550127 0.549673 0.275126
745 1 0.600027 0.600304 0.300056
509 2 0.750286 0.549818 0.274903
753 1 0.800214 0.600172 0.300018
517 2 0.949908 0.550263 0.275111
527 2 0.0502454 0.649785 0.27513
535 2 0.249709 0.650145 0.275127
543 2 0.450393 0.650158 0.275021
551 2 0.650329 0.649829 0.274993
559 2 0.849859 0.650045 0.274841
525 2 0.149758 0.749869 0.275178
723 1 0.0998701 0.699969 0.300117
731 1 0.300332 0.700037 0.299902
533 2 0.35015 0.75039 0.274851
739 1 0.500016 0.700384 0.30007
541 2 0.549862 0.750069 0.275104
549 2 0.749842 0.749943 0.275032
747 1 0.699719 0.700159 0.29985
755 1 0.899966 0.699652 0.300019
557 2 0.949723 0.750335 0.27507
761 1 0.000183641 0.800409 0.300159
769 1 0.199929 0.799753 0.299992
777 1 0.400274 0.800298 0.299967
785 1 0.599929 0.80012 0.300024
793 1 0.800064 0.799989 0.299911
567 2 0.0501686 0.850301 0.275087
763 1 0.100224 0.900317 0.300129
575 2 0.24995 0.849816 0.274926
771 1 0.300098 0.900297 0.299907
583 2 0.450455 0.849803 0.274796
779 1 0.500357 0.899848 0.299939
591 2 0.649964 0.849884 0.274987
787 1 0.69997 0.899643 0.300095
599 2 0.84983 0.850116 0.274884
795 1 0.899698 0.89975 0.299849
601 1 -1.28734e-05 1.00026 0.300126
565 2 0.150275 0.950021 0.275095
573 2 0.350192 0.950057 0.27501
625 1 0.599941 1.00018 0.29996
581 2 0.550074 0.949848 0.275158
589 2 0.749771 0.949679 0.274879
633 1 0.799814 0.99963 0.300059
597 2 0.950262 0.95032 0.275049
608 2 0.149733 0.0503421 0.32515
616 2 0.350066 0.0499947 0.324791
624 2 0.549813 0.0498116 0.325082
632 2 0.750039 0.0498531 0.324978
640 2 0.950157 0.0497997 0.325164
606 2 0.0498419 0.149759 0.325085
614 2 0.250198 0.150245 0.324921
622 2 0.4502 0.150133 0.325117
630 2 0.649602 0.149936 0.324844
638 2 0.850009 0.149832 0.325062
648 2 0.149731 0.249791 0.325175
656 2 0.350077 0.249753 0.325052
664 2 0.549691 0.250102 0.325133
672 2 0.749968 0.249749 0.32508
680 2 0.950295 0.250218 0.325034
646 2 0.0500971 0.34997 0.325125
654 2 0.249809 0.349864 0.324815
662 2 0.44978 0.349858 0.32512
670 2 0.650129 0.349661 0.324951
678 2 0.850033 0.349975 0.324881
688 2 0.14983 0.449975 0.325124
696 2 0.35032 0.450014 0.324859
704 2 0.550188 0.449688 0.325012
712 2 0.749743 0.449834 0.324942
720 2 0.949922 0.44988 0.324883
686 2 0.0496736 0.549756 0.325142
694 2 0.250172 0.549986 0.324933
702 2 0.450188 0.550242 0.324839
710 2 0.650103 0.550037 0.324999
718 2 0.850067 0.549841 0.32492
728 2 0.149842 0.649937 0.325107
736 2 0.350206 0.650146 0.324883
744 2 0.54978 0.650182 0.324935
752 2 0.749907 0.65025 0.324954
760 2 0.950079 0.650072 0.324931
726 2 0.0499053 0.750241 0.324961
734 2 0.249777 0.749796 0.32513
742 2 0.449819 0.749787 0.325049
750 2 0.649648 0.74982 0.325025
758 2 0.849908 0.749924 0.324936
768 2 0.150089 0.850152 0.324903
776 2 0.350131 0.850172 0.325052
784 2 0.550277 0.850188 0.325183
792 2 0.750091 0.849798 0.325056
800 2 0.949661 0.850241 0.325024
766 2 0.0501586 0.949993 0.325142
774 2 0.249815 0.949926 0.325171
782 2 0.45035 0.949951 0.32502
790 2 0.649623 0.949759 0.325045
798 2 0.850135 0.949839 0.325036
607 2 0.0501923 0.0498619 0.374952
610 1 0.300027 0.000113218 0.34989
615 2 0.249982 0.049839 0.375073
623 2 0.449758 0.0498153 0.374948
631 2 0.650184 0.0502676 0.375136
639 2 0.849853 0.0504148 0.375145
604 1 -0.000118024 0.0999695 0.349898
605 2 0.149675 0.149778 0.374861
612 1 0.200096 0.0997937 0.350091
613 2 0.349817 0.150048 0.374986
620 1 0.399825 0.100107 0.349972
621 2 0.549643 0.150055 0.374941
628 1 0.600084 0.0996823 0.350128
629 2 0.749968 0.149773 0.375046
636 1 0.800142 0.0998703 0.349936
637 2 0.949742 0.15025 0.375008
642 1 0.0997377 0.199832 0.35003
650 1 0.299692 0.200015 0.350119
658 1 0.49995 0.200128 0.349876
666 1 0.700037 0.200079 0.35005
674 1 0.900336 0.200049 0.349818
644 1 0.000277534 0.300007 0.349938
647 2 0.0499147 0.249839 0.374903
652 1 0.200224 0.30006 0.349832
655 2 0.249903 0.25003 0.375043
660 1 0.399732 0.300095 0.349978
663 2 0.450202 0.249747 0.374837
668 1 0.599687 0.300223 0.349929
671 2 0.64995 0.250094 0.375093
676 1 0.799666 0.300254 0.34993
679 2 0.850078 0.249939 0.374834
645 2 0.150124 0.349848 0.374913
653 2 0.349714 0.350137 0.375021
661 2 0.55019 0.350357 0.374898
669 2 0.749801 0.349727 0.375146
677 2 0.950067 0.350155 0.374926
687 2 0.0498436 0.450321 0.374879
682 1 0.100018 0.400179 0.350201
690 1 0.300106 0.400229 0.349974
695 2 0.250334 0.449956 0.375038
703 2 0.450193 0.450181 0.375171
698 1 0.499871 0.399912 0.350104
711 2 0.649899 0.450336 0.375032
706 1 0.699818 0.399954 0.350029
714 1 0.899878 0.399952 0.349937
719 2 0.850193 0.450109 0.375156
684 1 -0.000451782 0.500002 0.35003
692 1 0.200217 0.500021 0.350083
700 1 0.400236 0.50025 0.349883
708 1 0.600168 0.500174 0.350144
716 1 0.800181 0.499757 0.350047
685 2 0.15023 0.549802 0.374892
722 1 0.0996155 0.599999 0.350099
730 1 0.299996 0.599765 0.349976
693 2 0.350127 0.549701 0.374885
738 1 0.499781 0.600223 0.349849
701 2 0.549849 0.550098 0.375136
709 2 0.74986 0.549799 0.375023
746 1 0.700141 0.600354 0.350106
754 1 0.900032 0.599686 0.350072
717 2 0.950058 0.550084 0.375125
727 2 0.0496635 0.650359 0.37493
735 2 0.250046 0.650056 0.374885
743 2 0.4502 0.650223 0.375014
751 2 0.649717 0.64997 0.375224
759 2 0.849891 0.649987 0.374862
724 1 -0.000332946 0.700158 0.349936
725 2 0.150099 0.749936 0.375078
732 1 0.200034 0.699998 0.35008
733 2 0.350178 0.74984 0.375147
740 1 0.400197 0.700042 0.349987
741 2 0.550106 0.750089 0.375158
748 1 0.600088 0.700054 0.350121
749 2 0.749637 0.749887 0.375088
756 1 0.799742 0.700195 0.349914
757 2 0.949652 0.750046 0.375061
762 1 0.100289 0.799806 0.350126
770 1 0.300069 0.799999 0.349921
778 1 0.500299 0.799581 0.349854
786 1 0.699754 0.799773 0.349927
794 1 0.899574 0.800026 0.350002
764 1 -0.000111867 0.899963 0.350099
767 2 0.0498933 0.849633 0.374922
772 1 0.199618 0.900149 0.350028
775 2 0.249814 0.850355 0.374908
780 1 0.399972 0.89978 0.35017
783 2 0.450243 0.849615 0.374957
788 1 0.599773 0.900327 0.350188
791 2 0.650098 0.850178 0.375037
796 1 0.800076 0.900303 0.349821
799 2 0.849589 0.850218 0.374927
602 1 0.0998565 0.999854 0.349883
765 2 0.149998 0.949696 0.374981
773 2 0.349639 0.949746 0.374925
618 1 0.500298 1.00017 0.349926
781 2 0.550221 0.95015 0.374952
626 1 0.699963 0.999894 0.349997
789 2 0.749925 0.949758 0.374919
634 1 0.899727 1.00031 0.35019
797 2 0.950142 0.950228 0.375103
809 1 0.199654 -0.000315809 0.399847
817 1 0.399715 -8.50995e-05 0.400047
825 1 0.600004 -0.000102053 0.400053
803 1 0.100068 0.100163 0.399989
811 1 0.300265 0.0996762 0.39981
819 1 0.499689 0.0998379 0.39996
827 1 0.700188 0.100168 0.399943
835 1 0.899937 0.100027 0.399949
849 1 0.199583 0.199758 0.400133
857 1 0.399951 0.200148 0.399925
865 1 0.599905 0.200065 0.399916
873 1 0.80012 0.199931 0.399814
841 1 1.00001 0.19997 0.400102
843 1 0.0998433 0.300289 0.399904
851 1 0.300093 0.299884 0.400162
859 1 0.50029 0.299711 0.400075
867 1 0.699678 0.29978 0.400027
875 1 0.899888 0.30026 0.400128
889 1 0.199751 0.400302 0.39985
897 1 0.399735 0.399826 0.399869
905 1 0.600206 0.400346 0.399913
913 1 0.800267 0.399769 0.399984
881 1 1.00029 0.400108 0.399905
883 1 0.0998731 0.499695 0.400112
891 1 0.299888 0.50021 0.400097
899 1 0.500304 0.499932 0.400153
907 1 0.700069 0.499811 0.400139
915 1 0.899747 0.500012 0.399898
921 1 0.000192653 0.600068 0.400133
929 1 0.200298 0.599954 0.39993
937 1 0.400123 0.599593 0.400007
945 1 0.599756 0.599924 0.400205
953 1 0.800193 0.599736 0.399922
923 1 0.0996544 0.70014 0.399822
931 1 0.299967 0.700132 0.400139
939 1 0.499876 0.70011 0.399905
947 1 0.700005 0.699799 0.400182
955 1 0.899739 0.699808 0.400098
969 1 0.199874 0.800343 0.400061
977 1 0.3998 0.80008 0.400155
985 1 0.600093 0.799982 0.399975
993 1 0.799752 0.799832 0.400042
961 1 0.999915 0.799927 0.400086
963 1 0.0996619 0.899757 0.40012
971 1 0.300124 0.899857 0.400125
979 1 0.500213 0.899829 0.399976
987 1 0.699952 0.899806 0.399995
995 1 0.899875 0.8998 0.399841
833 1 0.800156 1.00015 0.399911
801 1 0.999764 1.00002 0.399878
802 1 0.100139 0.000266608 0.45013
808 2 0.14994 0.0498902 0.425014
810 1 0.300124 -0.000286492 0.449973
816 2 0.349853 0.0500357 0.424909
818 1 0.500095 0.000216922 0.450185
824 2 0.549911 0.0497954 0.424923
826 1 0.700004 0.00012347 0.449976
832 2 0.74967 0.0497518 0.424913
840 2 0.95002 0.0500088 0.424871
806 2 0.0499477 0.149993 0.425079
812 1 0.199754 0.100059 0.449998
814 2 0.249766 0.149587 0.424815
820 1 0.400041 0.099812 0.450102
822 2 0.449754 0.149746 0.425121
828 1 0.60012 0.0999386 0.450013
830 2 0.649734 0.149901 0.424897
836 1 0.79954 0.100021 0.449797
838 2 0.849676 0.150037 0.424837
804 1 1.00012 0.0996859 0.450068
842 1 0.100244 0.200182 0.450014
850 1 0.299646 0.199886 0.449856
858 1 0.500205 0.200308 0.45012
866 1 0.699729 0.200226 0.449876
874 1 0.90026 0.19972 0.449917
848 2 0.149994 0.250384 0.425059
852 1 0.200146 0.300017 0.449993
856 2 0.349774 0.250062 0.425042
860 1 0.399739 0.299734 0.450108
864 2 0.549932 0.249777 0.424883
868 1 0.599836 0.300052 0.450077
872 2 0.75001 0.249805 0.424816
876 1 0.800215 0.29987 0.449892
844 1 0.999891 0.299834 0.449979
880 2 0.950296 0.250034 0.425002
846 2 0.0502743 0.350358 0.424875
854 2 0.249989 0.350301 0.424955
862 2 0.449678 0.349643 0.425133
870 2 0.649912 0.349681 0.424972
878 2 0.849963 0.350122 0.425082
882 1 0.100019 0.400146 0.450194
888 2 0.150129 0.450299 0.425095
890 1 0.300037 0.399981 0.450082
896 2 0.349832 0.449926 0.425104
898 1 0.499978 0.399864 0.450117
904 2 0.549813 0.450142 0.42503
906 1 0.699614 0.400083 0.449919
912 2 0.750339 0.449853 0.425117
914 1 0.899795 0.399729 0.450009
920 2 0.949897 0.450238 0.424974
884 1 0.00011019 0.49971 0.450096
892 1 0.200211 0.500239 0.449931
900 1 0.399671 0.500349 0.450141
908 1 0.600193 0.499796 0.44994
916 1 0.800348 0.499934 0.450015
886 2 0.0499316 0.550113 0.42493
922 1 0.0997872 0.600355 0.450013
894 2 0.2502 0.549989 0.424858
930 1 0.30009 0.599613 0.450076
902 2 0.450299 0.549727 0.425079
938 1 0.499692 0.599737 0.450072
910 2 0.650038 0.550245 0.424862
946 1 0.699994 0.600098 0.450121
918 2 0.850135 0.549924 0.42505
954 1 0.900218 0.599791 0.449996
928 2 0.14995 0.6502 0.42481
936 2 0.350021 0.649644 0.424935
944 2 0.549992 0.65026 0.425178
952 2 0.749896 0.649961 0.424904
960 2 0.949994 0.649724 0.42491
924 1 -0.000240102 0.699933 0.450137
926 2 0.0500512 0.750044 0.424911
932 1 0.200176 0.699904 0.449975
934 2 0.250219 0.750212 0.425048
940 1 0.400052 0.700189 0.45009
942 2 0.450282 0.750284 0.424879
948 1 0.600275 0.70038 0.450125
950 2 0.649762 0.750253 0.424924
956 1 0.799813 0.700039 0.449873
958 2 0.849669 0.750136 0.425084
962 1 0.0997443 0.79971 0.449944
970 1 0.300103 0.800252 0.450092
978 1 0.499985 0.799816 0.450167
986 1 0.699927 0.800024 0.449873
994 1 0.899677 0.80024 0.449979
964 1 9.49335e-05 0.900025 0.450053
968 2 0.150062 0.850271 0.42498
972 1 0.199914 0.900356 0.449907
976 2 0.349962 0.850107 0.425167
980 1 0.399996 0.899788 0.449931
984 2 0.549864 0.850208 0.425074
988 1 0.600142 0.900431 0.449896
992 2 0.749939 0.850107 0.425038
996 1 0.800177 0.899878 0.449894
1000 2 0.949876 0.85028 0.425055
966 2 0.0501603 0.950224 0.425027
974 2 0.250115 0.950189 0.424987
982 2 0.450098 0.950238 0.425149
990 2 0.650265 0.950347 0.424831
834 1 0.899822 1.00018 0.45004
998 2 0.850232 0.949917 0.425098
807 2 0.0499492 0.049631 0.475022
815 2 0.250177 0.0497758 0.475007
823 2 0.449742 0.0499369 0.475075
831 2 0.649839 0.0502212 0.475161
839 2 0.849889 0.0501772 0.474921
805 2 0.15008 0.149802 0.47509
813 2 0.349891 0.15015 0.475003
821 2 0.54991 0.149825 0.47487
829 2 0.749608 0.149881 0.475015
837 2 0.949976 0.150174 0.475084
847 2 0.04977 0.249999 0.475121
855 2 0.250274 0.249969 0.47516
863 2 0.450116 0.250248 0.475118
871 2 0.650252 0.249915 0.475057
879 2 0.84987 0.250025 0.474864
845 2 0.15006 0.349738 0.475027