ITEM: TIMESTEP
100
ITEM: NUMBER OF ATOMS
1250
ITEM: BOX BOUNDS pp pp pp
-1.9849052344824258e-01 3.4342841343448242e+01
-1.9849052344824258e-01 3.4342841343448242e+01
-1.4054721374896488e+01 5.5027942358896482e+01
ITEM: ATOMS id type xs ys zs
1 1 0 0 0
8 2 0.15 0.05 0.025
9 1 0.2 0 0
16 2 0.35 0.05 0.025
17 1 0.4 0 0
24 2 0.55 0.05 0.025
25 1 0.6 0 0
32 2 0.75 0.05 0.025
33 1 0.8 0 0
40 2 0.95 0.05 0.025
6 2 0.05 0.15 0.025
3 1 0.1 0.1 0
11 1 0.3 0.1 0
14 2 0.25 0.15 0.025
22 2 0.45 0.15 0.025
19 1 0.5 0.1 0
30 2 0.65 0.15 0.025
27 1 0.7 0.1 0
35 1 0.9 0.1 0
38 2 0.85 0.15 0.025
41 1 0 0.2 0
49 1 0.2 0.2 0
57 1 0.4 0.2 0
65 1 0.6 0.2 0
73 1 0.8 0.2 0
43 1 0.1 0.3 0
48 2 0.15 0.25 0.025
51 1 0.3 0.3 0
56 2 0.35 0.25 0.025
59 1 0.5 0.3 0
64 2 0.55 0.25 0.025
67 1 0.7 0.3 0
72 2 0.75 0.25 0.025
75 1 0.9 0.3 0
80 2 0.95 0.25 0.025
46 2 0.05 0.35 0.025
54 2 0.25 0.35 0.025
62 2 0.45 0.35 0.025
70 2 0.65 0.35 0.025
78 2 0.85 0.35 0.025
81 1 0 0.4 0
88 2 0.15 0.45 0.025
89 1 0.2 0.4 0
96 2 0.35 0.45 0.025
97 1 0.4 0.4 0
104 2 0.55 0.45 0.025
105 1 0.6 0.4 0
112 2 0.75 0.45 0.025
113 1 0.8 0.4 0
120 2 0.95 0.45 0.025
83 1 0.1 0.5 0
91 1 0.3 0.5 0
99 1 0.5 0.5 0
107 1 0.7 0.5 0
115 1 0.9 0.5 0
86 2 0.05 0.55 0.025
121 1 0 0.6 0
129 1 0.2 0.6 0
94 2 0.25 0.55 0.025
102 2 0.45 0.55 0.025
137 1 0.4 0.6 0
145 1 0.6 0.6 0
110 2 0.65 0.55 0.025
153 1 0.8 0.6 0
118 2 0.85 0.55 0.025
128 2 0.15 0.65 0.025
136 2 0.35 0.65 0.025
144 2 0.55 0.65 0.025
152 2 0.75 0.65 0.025
160 2 0.95 0.65 0.025
126 2 0.05 0.75 0.025
123 1 0.1 0.7 0
131 1 0.3 0.7 0
134 2 0.25 0.75 0.025
142 2 0.45 0.75 0.025
139 1 0.5 0.7 0
150 2 0.65 0.75 0.025
147 1 0.7 0.7 0
155 1 0.9 0.7 0
158 2 0.85 0.75 0.025
161 1 0 0.8 0
169 1 0.2 0.8 0
177 1 0.4 0.8 0
185 1 0.6 0.8 0
193 1 0.8 0.8 0
163 1 0.1 0.9 0
168 2 0.15 0.85 0.025
171 1 0.3 0.9 0
176 2 0.35 0.85 0.025
179 1 0.5 0.9 0
184 2 0.55 0.85 0.025
187 1 0.7 0.9 0
192 2 0.75 0.85 0.025
195 1 0.9 0.9 0
200 2 0.95 0.85 0.025
166 2 0.05 0.95 0.025
174 2 0.25 0.95 0.025
182 2 0.45 0.95 0.025
190 2 0.65 0.95 0.025
198 2 0.85 0.95 0.025
7 2 0.0508794 0.0553019 0.0752002
2 1 0.1 0 0.05
10 1 0.3 0 0.05
15 2 0.246516 0.0502882 0.0774374
23 2 0.453216 0.0519261 0.0777536
18 1 0.5 0 0.05
31 2 0.651983 0.049875 0.0753407
26 1 0.7 0 0.05
34 1 0.9 0 0.05
39 2 0.854481 0.0514275 0.0753954
4 1 0 0.1 0.05
5 2 0.146991 0.151661 0.072727
12 1 0.2 0.1 0.05
13 2 0.348066 0.153103 0.0779253
20 1 0.4 0.1 0.05
21 2 0.552735 0.154209 0.0727216
28 1 0.6 0.1 0.05
29 2 0.755335 0.147234 0.0732778
36 1 0.8 0.1 0.05
37 2 0.953446 0.145573 0.0775141
42 1 0.1 0.2 0.05
50 1 0.3 0.2 0.05
58 1 0.5 0.2 0.05
66 1 0.7 0.2 0.05
74 1 0.9 0.2 0.05
44 1 0 0.3 0.05
47 2 0.0455542 0.253518 0.0719783
52 1 0.2 0.3 0.05
55 2 0.247128 0.253529 0.0773816
60 1 0.4 0.3 0.05
63 2 0.448375 0.24662 0.0759
68 1 0.6 0.3 0.05
71 2 0.655382 0.244398 0.0749033
76 1 0.8 0.3 0.05
79 2 0.846646 0.25519 0.0741477
45 2 0.143767 0.354202 0.0736818
53 2 0.347457 0.34957 0.0731041
61 2 0.555821 0.349489 0.075184
69 2 0.751866 0.344368 0.0747074
77 2 0.949093 0.352909 0.0765351
87 2 0.045294 0.445537 0.0742777
82 1 0.1 0.4 0.05
90 1 0.3 0.4 0.05
95 2 0.253668 0.451858 0.0763566
103 2 0.448066 0.450475 0.0723784
98 1 0.5 0.4 0.05
111 2 0.651878 0.443347 0.075599
106 1 0.7 0.4 0.05
114 1 0.9 0.4 0.05
119 2 0.850679 0.442779 0.0733425
84 1 0 0.5 0.05
92 1 0.2 0.5 0.05
100 1 0.4 0.5 0.05
108 1 0.6 0.5 0.05
116 1 0.8 0.5 0.05
85 2 0.144711 0.548971 0.0743346
122 1 0.1 0.6 0.05
130 1 0.3 0.6 0.05
93 2 0.348623 0.554385 0.0765468
138 1 0.5 0.6 0.05
101 2 0.552108 0.556338 0.0775723
109 2 0.755216 0.54478 0.0768296
146 1 0.7 0.6 0.05
154 1 0.9 0.6 0.05
117 2 0.95079 0.555856 0.0739035
127 2 0.0561152 0.654657 0.0723106
135 2 0.246074 0.647617 0.0764088
143 2 0.451305 0.655521 0.0734651
151 2 0.645867 0.650634 0.0728232
159 2 0.850861 0.653092 0.0770266
124 1 0 0.7 0.05
125 2 0.157778 0.751598 0.0778895
132 1 0.2 0.7 0.05
133 2 0.351179 0.746679 0.0735282
140 1 0.4 0.7 0.05
141 2 0.54586 0.754198 0.077812
148 1 0.6 0.7 0.05
149 2 0.748394 0.750813 0.0746748
156 1 0.8 0.7 0.05
157 2 0.950632 0.754357 0.075086
162 1 0.1 0.8 0.05
170 1 0.3 0.8 0.05
178 1 0.5 0.8 0.05
186 1 0.7 0.8 0.05
194 1 0.9 0.8 0.05
164 1 0 0.9 0.05
167 2 0.0493259 0.855332 0.0724404
172 1 0.2 0.9 0.05
175 2 0.255771 0.850714 0.0767755
180 1 0.4 0.9 0.05
183 2 0.453848 0.855377 0.0739869
188 1 0.6 0.9 0.05
191 2 0.653763 0.843574 0.0777411
196 1 0.8 0.9 0.05
199 2 0.854224 0.848316 0.0768262
165 2 0.143212 0.947053 0.0776643
173 2 0.349394 0.948743 0.0772302
181 2 0.543462 0.946691 0.0744171
189 2 0.75486 0.951351 0.0728384
197 2 0.945026 0.946876 0.0738975
201 1 0.00143804 0.00406054 0.100893
209 1 0.198834 0.995091 0.0995537
217 1 0.394815 0.00637032 0.100725
225 1 0.592439 0.995893 0.0992052
233 1 0.805822 0.9981 0.0966836
203 1 0.1045 0.102385 0.0967656
211 1 0.299685 0.102916 0.100304
219 1 0.504738 0.107083 0.0967115
227 1 0.702606 0.10398 0.0969164
235 1 0.902317 0.100376 0.0980195
241 1 0.00144617 0.203169 0.0993458
249 1 0.204646 0.194674 0.0988029
257 1 0.401973 0.200818 0.102237
265 1 0.598177 0.204615 0.100492
273 1 0.796662 0.203739 0.0970579
243 1 0.0961094 0.293697 0.100202
251 1 0.297396 0.299346 0.0973229
259 1 0.500531 0.295079 0.0984284
267 1 0.705385 0.29735 0.100528
275 1 0.902548 0.303553 0.101267
281 1 0.00075216 0.394268 0.0990447
289 1 0.199854 0.399604 0.100051
297 1 0.402432 0.400554 0.096978
305 1 0.602058 0.393532 0.103256
313 1 0.801289 0.399528 0.10144
283 1 0.0993908 0.502307 0.0970845
291 1 0.294858 0.500367 0.101189
299 1 0.505344 0.505507 0.102436
307 1 0.702602 0.502916 0.0992765
315 1 0.896254 0.493952 0.100228
321 1 0.997838 0.607814 0.100366
329 1 0.193858 0.59674 0.100387
337 1 0.404635 0.605015 0.103307
345 1 0.606814 0.595718 0.0995302
353 1 0.794259 0.599769 0.0986367
323 1 0.10121 0.700852 0.0975019
331 1 0.302784 0.698111 0.0968712
339 1 0.494639 0.706658 0.102756
347 1 0.704323 0.697757 0.102196
355 1 0.898928 0.701416 0.100415
361 1 0.00322867 0.802664 0.0995089
369 1 0.207959 0.805877 0.0998444
377 1 0.39538 0.804582 0.100172
385 1 0.598782 0.801872 0.103014
393 1 0.795363 0.799811 0.101552
363 1 0.096734 0.893647 0.0986529
371 1 0.300402 0.90015 0.103535
379 1 0.499627 0.894906 0.101497
387 1 0.705325 0.90105 0.0983822
395 1 0.897374 0.895728 0.100708
202 1 0.102153 0.00164955 0.151532
208 2 0.145007 0.0538013 0.122449
210 1 0.295361 0.00364687 0.149248
216 2 0.34835 0.0553128 0.123127
218 1 0.497389 0.999147 0.148701
224 2 0.543671 0.0549918 0.127903
226 1 0.697859 0.995728 0.147416
232 2 0.751127 0.0528349 0.12432
234 1 0.907713 0.993917 0.147461
240 2 0.95037 0.0544002 0.122858
204 1 0.995599 0.100794 0.149392
206 2 0.0547832 0.1518 0.123299
212 1 0.198736 0.103169 0.152481
214 2 0.251172 0.153509 0.125751
220 1 0.399548 0.0935905 0.147539
222 2 0.447877 0.146067 0.122161
228 1 0.596332 0.103662 0.150561
230 2 0.651793 0.14873 0.122396
236 1 0.797402 0.0968408 0.149031
238 2 0.84377 0.147459 0.127346
242 1 0.10726 0.198371 0.150341
250 1 0.303299 0.198155 0.153517
258 1 0.494326 0.199497 0.149712
266 1 0.701472 0.199568 0.146466
274 1 0.892882 0.196667 0.151278
244 1 1.00002 0.296029 0.147059
248 2 0.147842 0.253155 0.123182
252 1 0.200013 0.305872 0.148573
256 2 0.351407 0.249698 0.125084
260 1 0.404774 0.294698 0.15239
264 2 0.549369 0.250654 0.125501
268 1 0.600727 0.304123 0.150379
272 2 0.752934 0.24529 0.124743
276 1 0.801267 0.304072 0.150056
280 2 0.948621 0.244012 0.123099
246 2 0.0556881 0.345483 0.123424
254 2 0.247162 0.3518 0.122457
262 2 0.446688 0.350464 0.127566
270 2 0.65465 0.352836 0.125684
278 2 0.848911 0.354761 0.123476
282 1 0.101212 0.396352 0.15131
288 2 0.153893 0.445639 0.127108
290 1 0.295872 0.392532 0.152376
296 2 0.349031 0.449806 0.12851
298 1 0.501517 0.396907 0.152226
304 2 0.55025 0.448221 0.124444
306 1 0.702006 0.395975 0.149119
312 2 0.753482 0.4506 0.123768
314 1 0.896058 0.398641 0.150551
320 2 0.94686 0.452419 0.126698
284 1 1.00028 0.497203 0.149118
292 1 0.204549 0.494614 0.148554
300 1 0.403939 0.506691 0.149403
308 1 0.601089 0.498113 0.148835
316 1 0.798818 0.504215 0.148047
286 2 0.0493566 0.547189 0.122263
322 1 0.104898 0.601579 0.152388
294 2 0.244313 0.549298 0.122312
330 1 0.301416 0.605021 0.149661
302 2 0.454057 0.554705 0.126613
338 1 0.505771 0.596489 0.147669
310 2 0.64917 0.550042 0.123688
346 1 0.700575 0.605073 0.148877
318 2 0.847058 0.552833 0.121213
354 1 0.894843 0.590726 0.152851
328 2 0.151535 0.654856 0.124373
336 2 0.347633 0.653779 0.127476
344 2 0.549165 0.644511 0.122903
352 2 0.748415 0.648034 0.124493
360 2 0.942921 0.652269 0.124654
324 1 0.00576887 0.69529 0.148235
326 2 0.0454 0.747001 0.122099
332 1 0.205391 0.701142 0.151078
334 2 0.254506 0.75377 0.125636
340 1 0.397142 0.694215 0.151262
342 2 0.452336 0.753593 0.129435
348 1 0.599024 0.694762 0.149986
350 2 0.656628 0.749503 0.128272
356 1 0.805661 0.702929 0.153077
358 2 0.854623 0.751894 0.122509
362 1 0.103037 0.802188 0.149225
370 1 0.299357 0.797872 0.151796
378 1 0.504175 0.8027 0.15338
386 1 0.708029 0.799375 0.153213
394 1 0.89728 0.793791 0.150923
364 1 0.00513015 0.899641 0.149075
368 2 0.151444 0.848532 0.122579
372 1 0.193637 0.898362 0.152104
376 2 0.345601 0.852828 0.127931
380 1 0.406387 0.901066 0.15024
384 2 0.557215 0.857248 0.124274
388 1 0.607894 0.899863 0.150353
392 2 0.751601 0.855305 0.128297
396 1 0.804022 0.896095 0.154141
400 2 0.954208 0.845371 0.127961
366 2 0.0515933 0.955373 0.123871
374 2 0.24341 0.944295 0.125061
382 2 0.450821 0.956244 0.121515
390 2 0.644229 0.948395 0.122834
398 2 0.853934 0.952194 0.124118
207 2 0.051226 0.0501035 0.173286
215 2 0.250185 0.0466957 0.173838
223 2 0.454859 0.0440664 0.174049
231 2 0.64769 0.05217 0.175163
239 2 0.850574 0.0440332 0.17075
205 2 0.15422 0.151822 0.176411
213 2 0.353853 0.146956 0.177989
221 2 0.542891 0.153377 0.176969
229 2 0.749692 0.146524 0.172683
237 2 0.943728 0.143336 0.176026
247 2 0.055093 0.250751 0.175836
255 2 0.247895 0.245551 0.176584
263 2 0.447504 0.247454 0.174471
271 2 0.6554 0.244341 0.175496
279 2 0.844772 0.251419 0.172591
245 2 0.147605 0.353295 0.173445
253 2 0.356267 0.344899 0.178077
261 2 0.55094 0.347536 0.174206
269 2 0.751563 0.3504 0.172329
277 2 0.951311 0.349072 0.173954
287 2 0.0516396 0.450367 0.174995
295 2 0.243756 0.454641 0.178657
303 2 0.453341 0.451551 0.174517
311 2 0.646065 0.448308 0.172896
319 2 0.846734 0.450881 0.175858
285 2 0.145494 0.548305 0.178359
293 2 0.355395 0.55556 0.172885
301 2 0.549306 0.548786 0.176126
309 2 0.748866 0.546976 0.177654
317 2 0.956192 0.543412 0.176819
327 2 0.0505281 0.649779 0.172528
335 2 0.252716 0.643367 0.178211
343 2 0.454605 0.645719 0.171727
351 2 0.645124 0.65344 0.176376
359 2 0.853307 0.64585 0.175365
325 2 0.153287 0.753894 0.172479
333 2 0.351478 0.742824 0.17528
341 2 0.551831 0.746219 0.176312
349 2 0.755584 0.75358 0.178687
357 2 0.955165 0.745023 0.17131
367 2 0.0552426 0.845532 0.173119
375 2 0.243716 0.844605 0.172841
383 2 0.447618 0.849207 0.174723
391 2 0.657692 0.851784 0.177356
399 2 0.858427 0.845408 0.179026
365 2 0.150726 0.949444 0.17434
373 2 0.344766 0.952528 0.174831
381 2 0.548074 0.946175 0.172278
389 2 0.743455 0.953021 0.17722
397 2 0.946021 0.9437 0.175439
408 2 0.150543 0.0541208 0.228475
409 1 0.196898 0.00032669 0.202518
416 2 0.345811 0.0526722 0.227008
424 2 0.555279 0.044582 0.225394
432 2 0.750839 0.0564425 0.22389
440 2 0.943958 0.0433719 0.227812
406 2 0.0486887 0.147265 0.225089
403 1 0.101304 0.101957 0.202819
411 1 0.291955 0.0972666 0.202993
414 2 0.247792 0.156069 0.22673
422 2 0.44565 0.147837 0.223513
419 1 0.502318 0.0977941 0.201387
430 2 0.645408 0.15755 0.222696
427 1 0.693026 0.105915 0.19833
435 1 0.89494 0.0939948 0.200284
438 2 0.855303 0.150665 0.227687
441 1 0.995299 0.193229 0.198618
449 1 0.199532 0.198718 0.202312
457 1 0.398668 0.206777 0.203515
465 1 0.592752 0.206179 0.202245
473 1 0.799546 0.20196 0.197493
443 1 0.0990108 0.301953 0.200148
448 2 0.150917 0.24907 0.222467
451 1 0.300813 0.292599 0.200902
456 2 0.349376 0.24968 0.228344
459 1 0.498753 0.300208 0.197427
464 2 0.54766 0.251482 0.226508
467 1 0.700237 0.293957 0.201053
472 2 0.753605 0.249264 0.223257
475 1 0.898413 0.294811 0.2006
480 2 0.956289 0.254493 0.223899
446 2 0.0529417 0.345182 0.223279
454 2 0.246887 0.347989 0.222639
462 2 0.449795 0.355651 0.225945
470 2 0.653094 0.342692 0.225583
478 2 0.848705 0.354023 0.222609
481 1 0.00625715 0.398124 0.198133
488 2 0.146483 0.453577 0.22641
489 1 0.191453 0.396824 0.202734
496 2 0.346289 0.450169 0.225506
497 1 0.398822 0.406223 0.202995
504 2 0.544781 0.441706 0.227491
505 1 0.600318 0.399702 0.201145
512 2 0.748974 0.447316 0.226526
513 1 0.799318 0.398556 0.19735
520 2 0.953575 0.450552 0.222031
483 1 0.0951152 0.50418 0.202746
491 1 0.301287 0.501711 0.199758
499 1 0.506278 0.496022 0.202087
507 1 0.692839 0.502084 0.19758
515 1 0.89495 0.496169 0.201567
486 2 0.0510815 0.551314 0.226119
521 1 0.00700662 0.594674 0.198848
529 1 0.199041 0.597932 0.202644
494 2 0.244987 0.553514 0.22556
502 2 0.445006 0.554601 0.225314
537 1 0.397059 0.600391 0.197919
545 1 0.602109 0.595968 0.197228
510 2 0.644894 0.545336 0.227523
553 1 0.798741 0.601684 0.199824
518 2 0.847376 0.553203 0.227921
528 2 0.148457 0.645773 0.224325
536 2 0.352728 0.648396 0.222897
544 2 0.556451 0.654031 0.22349
552 2 0.754221 0.654817 0.221956
560 2 0.956683 0.643688 0.224958
526 2 0.0481028 0.75103 0.224956
523 1 0.106704 0.70538 0.198574
531 1 0.294704 0.693654 0.202838
534 2 0.24387 0.745722 0.22752
542 2 0.444206 0.754463 0.228137
539 1 0.503905 0.706368 0.202616
550 2 0.655213 0.744046 0.225234
547 1 0.699443 0.704587 0.197951
555 1 0.905689 0.702441 0.197727
558 2 0.852442 0.746182 0.222809
561 1 0.00581354 0.8004 0.196754
569 1 0.19744 0.796637 0.202664
577 1 0.40276 0.800816 0.199918
585 1 0.604096 0.804351 0.20239
593 1 0.807947 0.803974 0.20253
563 1 0.105984 0.894925 0.199667
568 2 0.151167 0.853445 0.226117
571 1 0.294299 0.895334 0.19808
576 2 0.348623 0.850141 0.227244
579 1 0.501678 0.89501 0.197281
584 2 0.553814 0.848748 0.224446
587 1 0.701782 0.900721 0.203319
592 2 0.753938 0.849155 0.222756
595 1 0.90383 0.906276 0.20351
600 2 0.95115 0.853327 0.222724
566 2 0.0494619 0.945426 0.225211
574 2 0.256122 0.946475 0.223858
417 1 0.395932 0.996189 0.202773
582 2 0.453113 0.944127 0.222016
425 1 0.59616 0.00105823 0.197317
590 2 0.648455 0.944462 0.224503
433 1 0.794007 0.00471903 0.19785
598 2 0.846718 0.953379 0.222349
401 1 0.995792 0.997886 0.201559
402 1 0.0961102 0.994986 0.248734
410 1 0.302296 0.00437403 0.251698
426 1 0.69404 0.000912129 0.247175
404 1 0.992691 0.102679 0.247976
412 1 0.204334 0.103179 0.25279
420 1 0.403983 0.104343 0.250618
428 1 0.601678 0.106774 0.247769
436 1 0.79954 0.0993298 0.251507
442 1 0.0956378 0.204704 0.251875
450 1 0.303059 0.201833 0.250163
458 1 0.495134 0.20156 0.250074
466 1 0.700688 0.192967 0.249521
474 1 0.901611 0.197556 0.253613
444 1 0.999565 0.303586 0.24889
452 1 0.202432 0.304011 0.252829
460 1 0.407192 0.2974 0.248359
468 1 0.594241 0.301211 0.25138
476 1 0.799745 0.296188 0.250518
482 1 0.101989 0.397733 0.246993
490 1 0.300299 0.402617 0.24872
498 1 0.497168 0.403771 0.252763
506 1 0.69334 0.39623 0.249967
514 1 0.897833 0.402871 0.249609
484 1 0.00039774 0.496854 0.251882
492 1 0.197451 0.496856 0.24762
500 1 0.39705 0.499551 0.249619
508 1 0.598323 0.49106 0.247587
516 1 0.807696 0.492609 0.24847
522 1 0.102671 0.600815 0.252593
530 1 0.298036 0.599573 0.250197
538 1 0.498119 0.594895 0.251629
546 1 0.705474 0.599992 0.248036
554 1 0.90336 0.60521 0.250724
524 1 0.0014162 0.700649 0.251555
532 1 0.19244 0.693841 0.250217
540 1 0.399172 0.69922 0.250518
548 1 0.599373 0.696636 0.251765
556 1 0.793765 0.706173 0.250406
562 1 0.101092 0.797421 0.251834
570 1 0.295907 0.794967 0.249685
578 1 0.504375 0.79677 0.246816
586 1 0.703183 0.800061 0.249066
594 1 0.901999 0.79685 0.247765
564 1 0.00232777 0.898856 0.249947
572 1 0.199363 0.895377 0.250406
580 1 0.407192 0.902038 0.248262
588 1 0.601226 0.901694 0.250785
596 1 0.805939 0.898166 0.246056
418 1 0.505458 0.993527 0.250527
434 1 0.893521 0.993555 0.24883
407 2 0.0480826 0.0548605 0.275933
609 1 0.19428 0.000239399 0.303841
415 2 0.24382 0.0476095 0.277559
423 2 0.450284 0.051121 0.276204
617 1 0.40165 0.993776 0.29763
431 2 0.647727 0.0493397 0.277073
439 2 0.853897 0.047317 0.276506
405 2 0.149863 0.149786 0.273472
603 1 0.104946 0.105607 0.300356
611 1 0.294126 0.0999605 0.30199
413 2 0.352756 0.15208 0.274641
619 1 0.495461 0.0956319 0.29857
421 2 0.544184 0.151096 0.273093
429 2 0.755503 0.146882 0.276594
627 1 0.694547 0.0934515 0.302059
635 1 0.906184 0.102345 0.30259
437 2 0.951274 0.150818 0.278567
641 1 0.998475 0.200216 0.3031
649 1 0.201027 0.20348 0.297869
657 1 0.405466 0.202239 0.298996
665 1 0.594985 0.205677 0.29778
673 1 0.80754 0.204517 0.302235
447 2 0.0492996 0.248164 0.276599
643 1 0.107235 0.300063 0.298343
455 2 0.256065 0.248494 0.273004
651 1 0.29823 0.298404 0.299634
463 2 0.448752 0.245513 0.275628
659 1 0.4988 0.297625 0.297435
471 2 0.645048 0.245518 0.272893
667 1 0.70351 0.298092 0.300207
479 2 0.851911 0.252995 0.273474
675 1 0.900684 0.293043 0.301699
445 2 0.148707 0.354413 0.272405
453 2 0.349375 0.352995 0.27581
461 2 0.548454 0.354629 0.273121
469 2 0.750539 0.355758 0.273877
477 2 0.948316 0.34483 0.276113
487 2 0.0480449 0.44661 0.278178
681 1 0.0027186 0.400137 0.303451
689 1 0.199471 0.394665 0.29662
495 2 0.243135 0.446351 0.271355
503 2 0.452929 0.454541 0.272347
697 1 0.402391 0.4014 0.297588
705 1 0.606063 0.397429 0.302053
511 2 0.6542 0.455962 0.276595
713 1 0.802319 0.406516 0.299106
519 2 0.855972 0.450098 0.277497
683 1 0.0995181 0.494883 0.30218
691 1 0.296785 0.49757 0.298578
699 1 0.498199 0.496765 0.302017
707 1 0.70381 0.500975 0.300011
715 1 0.904612 0.50045 0.299396
721 1 0.00561819 0.599033 0.298775
485 2 0.146777 0.551897 0.277542
729 1 0.195358 0.603717 0.299471
493 2 0.351089 0.551615 0.275741
737 1 0.401726 0.600288 0.296611
501 2 0.552222 0.543848 0.277402
745 1 0.600596 0.605781 0.301066
509 2 0.755116 0.546489 0.273168
753 1 0.804252 0.603332 0.300414
517 2 0.948117 0.555167 0.277158
527 2 0.0549498 0.646109 0.277439
535 2 0.244464 0.653033 0.277415
543 2 0.457349 0.652931 0.275412
551 2 0.656086 0.646591 0.274853
559 2 0.847321 0.650852 0.272071
525 2 0.145318 0.74765 0.278359
723 1 0.0975123 0.699389 0.302225
731 1 0.30641 0.700281 0.297947
533 2 0.35299 0.757182 0.27223
739 1 0.500177 0.707006 0.301347
541 2 0.547451 0.75152 0.276902
549 2 0.746971 0.749188 0.275669
747 1 0.694589 0.703162 0.297233
755 1 0.899044 0.693582 0.300269
557 2 0.94462 0.756009 0.276369
761 1 0.00358106 0.808269 0.303064
769 1 0.198654 0.795381 0.299866
777 1 0.405163 0.805645 0.299375
785 1 0.598671 0.802234 0.300454
793 1 0.801163 0.79977 0.298345
567 2 0.0530751 0.855656 0.276641
763 1 0.104158 0.906035 0.302381
575 2 0.248958 0.846401 0.273523
771 1 0.301829 0.905632 0.298323
583 2 0.458427 0.846295 0.271207
779 1 0.506495 0.89682 0.299005
591 2 0.649318 0.847855 0.274771
787 1 0.69946 0.893235 0.301715
599 2 0.846471 0.852085 0.27293
795 1 0.894303 0.895213 0.297535
601 1 0.999705 0.00489455 0.302148
565 2 0.155223 0.950108 0.2768
573 2 0.353178 0.950864 0.274976
625 1 0.598482 0.00313526 0.299347
581 2 0.551708 0.947494 0.277809
589 2 0.745703 0.944021 0.27284
633 1 0.796469 0.992953 0.301208
597 2 0.95503 0.956242 0.275715
608 2 0.144888 0.0563699 0.327838
616 2 0.351173 0.0499345 0.321112
624 2 0.547407 0.0471689 0.32614
632 2 0.75073 0.0472532 0.324588
640 2 0.952647 0.0460843 0.32811
606 2 0.0473465 0.145785 0.326453
614 2 0.253975 0.155363 0.323405
622 2 0.453392 0.152168 0.32714
630 2 0.642139 0.148271 0.321836
638 2 0.85028 0.146997 0.326097
648 2 0.144979 0.24639 0.328283
656 2 0.351611 0.245314 0.326024
664 2 0.544405 0.25232 0.327386
672 2 0.749617 0.245445 0.326403
680 2 0.955511 0.254099 0.325651
646 2 0.0517201 0.349868 0.327328
654 2 0.246053 0.347048 0.321181
662 2 0.445959 0.347665 0.327307
670 2 0.652309 0.343647 0.324142
678 2 0.850688 0.349533 0.322756
688 2 0.146382 0.449867 0.327546
696 2 0.355958 0.450339 0.322378
704 2 0.553156 0.444001 0.325086
712 2 0.745038 0.446608 0.323813
720 2 0.94844 0.447831 0.32286
686 2 0.0438188 0.545675 0.327652
694 2 0.253374 0.549547 0.323828
702 2 0.453426 0.554513 0.321938
710 2 0.65176 0.550485 0.324908
718 2 0.851285 0.547023 0.323492
728 2 0.147027 0.64879 0.32696
736 2 0.354266 0.653009 0.322684
744 2 0.54569 0.653159 0.323696
752 2 0.748267 0.654554 0.32417
760 2 0.951902 0.651596 0.323651
726 2 0.0484163 0.754233 0.324278
734 2 0.245684 0.746802 0.32749
742 2 0.446956 0.746403 0.325768
750 2 0.643525 0.746815 0.325385
758 2 0.848267 0.74861 0.32382
768 2 0.152037 0.852958 0.323095
776 2 0.352543 0.853091 0.326015
784 2 0.555092 0.853396 0.328428
792 2 0.75173 0.846256 0.326039
800 2 0.943737 0.854539 0.325443
766 2 0.0525994 0.94914 0.32746
774 2 0.246545 0.948771 0.328231
782 2 0.45691 0.949426 0.325217
790 2 0.642975 0.945486 0.325821
798 2 0.852843 0.947276 0.325464
607 2 0.0537221 0.0472216 0.374182
610 1 0.300508 0.00203849 0.347949
615 2 0.249564 0.046886 0.376349
623 2 0.445494 0.046617 0.374049
631 2 0.653448 0.0550317 0.377525
639 2 0.847139 0.0577533 0.377591
604 1 0.997852 0.0993618 0.348067
605 2 0.143981 0.145773 0.372279
612 1 0.201158 0.0957226 0.351964
613 2 0.346596 0.150951 0.374712
620 1 0.396763 0.102052 0.349491
621 2 0.543241 0.151089 0.373927
628 1 0.601459 0.0941075 0.352249
629 2 0.749786 0.146266 0.3757
636 1 0.80264 0.0973004 0.348771
637 2 0.944897 0.154854 0.375328
642 1 0.0950515 0.196739 0.350541
650 1 0.294298 0.200126 0.352235
658 1 0.499294 0.20209 0.34781
666 1 0.701038 0.201936 0.351275
674 1 0.906216 0.200879 0.346556
644 1 0.00510863 0.29989 0.348888
647 2 0.0482561 0.247012 0.37317
652 1 0.203909 0.300804 0.346995
655 2 0.248403 0.250912 0.37564
660 1 0.394642 0.301761 0.349512
663 2 0.453495 0.245146 0.372136
668 1 0.59392 0.304529 0.348377
671 2 0.649175 0.251197 0.376768
676 1 0.793557 0.304889 0.348536
679 2 0.851326 0.248538 0.371876
645 2 0.152336 0.347205 0.37337
653 2 0.344414 0.352376 0.375294
661 2 0.554132 0.357069 0.372956
669 2 0.746421 0.344752 0.377796
677 2 0.95127 0.353097 0.373604
687 2 0.0471044 0.456017 0.372746
682 1 0.100453 0.403376 0.353838
690 1 0.30271 0.404832 0.349755
695 2 0.256125 0.449239 0.375817
703 2 0.453781 0.453105 0.378262
698 1 0.497406 0.398395 0.351932
711 2 0.648501 0.456264 0.375698
706 1 0.696552 0.3992 0.35045
714 1 0.897831 0.399 0.348812
719 2 0.852856 0.451347 0.377633
684 1 0.991443 0.499985 0.350573
692 1 0.204429 0.500078 0.351442
700 1 0.404355 0.504888 0.347653
708 1 0.603245 0.503828 0.352697
716 1 0.803595 0.495611 0.350955
685 2 0.154443 0.54702 0.372902
722 1 0.0927365 0.600038 0.351819
730 1 0.299581 0.595274 0.34981
693 2 0.352195 0.544521 0.372921
738 1 0.495532 0.604651 0.347055
701 2 0.547526 0.551516 0.377714
709 2 0.747325 0.546299 0.375466
746 1 0.702907 0.606758 0.35209
754 1 0.900135 0.593832 0.351507
717 2 0.951084 0.551483 0.377337
727 2 0.0437071 0.656622 0.373644
735 2 0.250752 0.650758 0.372806
743 2 0.453788 0.654133 0.374951
751 2 0.644658 0.649477 0.379176
759 2 0.848031 0.649699 0.372463
724 1 0.993751 0.702969 0.34887
725 2 0.151903 0.74868 0.376533
732 1 0.200372 0.699908 0.351593
733 2 0.353601 0.746748 0.377879
740 1 0.403376 0.700414 0.349922
741 2 0.551768 0.751597 0.377888
748 1 0.601793 0.701102 0.352457
749 2 0.743209 0.747887 0.376637
756 1 0.795175 0.703725 0.348386
757 2 0.943508 0.750855 0.376116
762 1 0.105 0.796364 0.352429
770 1 0.301163 0.800096 0.348258
778 1 0.505788 0.792101 0.347222
786 1 0.695504 0.795732 0.348614
794 1 0.891943 0.800455 0.350053
764 1 0.997901 0.89924 0.351907
767 2 0.0478693 0.843087 0.373505
772 1 0.193323 0.902232 0.350231
775 2 0.246394 0.856765 0.373353
780 1 0.399077 0.89544 0.353453
783 2 0.454488 0.842955 0.374169
788 1 0.596437 0.905362 0.35314
791 2 0.651592 0.853146 0.375616
796 1 0.80087 0.905225 0.346859
799 2 0.842385 0.854199 0.373557
602 1 0.0977411 0.998256 0.347974
765 2 0.149701 0.944528 0.37477
773 2 0.34305 0.945114 0.373507
618 1 0.504646 0.00212782 0.349076
781 2 0.553626 0.953569 0.374355
626 1 0.699548 0.997984 0.349943
789 2 0.74842 0.945277 0.373369
634 1 0.894934 0.00591119 0.353508
797 2 0.952042 0.953429 0.3766
809 1 0.19391 0.994552 0.397263
817 1 0.39489 0.998565 0.400941
825 1 0.599744 0.998078 0.400997
803 1 0.101123 0.102941 0.399894
811 1 0.305033 0.0938812 0.396255
819 1 0.494155 0.0969331 0.399233
827 1 0.703146 0.102752 0.399239
835 1 0.899091 0.100684 0.399126
849 1 0.191904 0.1954 0.402718
857 1 0.39892 0.202859 0.398482
865 1 0.598293 0.201148 0.398429
873 1 0.802113 0.198793 0.396448
841 1 0.000220072 0.199328 0.401857
843 1 0.0972356 0.305451 0.398124
851 1 0.301354 0.298339 0.402854
859 1 0.504687 0.294712 0.401343
867 1 0.694402 0.296045 0.400619
875 1 0.898083 0.305 0.402467
889 1 0.195206 0.405838 0.397098
897 1 0.395299 0.397148 0.397502
905 1 0.60359 0.406163 0.398342
913 1 0.805013 0.395691 0.39963
881 1 0.00550103 0.401878 0.398011
883 1 0.0968728 0.493726 0.402295
891 1 0.298546 0.503151 0.401425
899 1 0.505223 0.499284 0.402559
907 1 0.701233 0.496511 0.402569
915 1 0.89604 0.501154 0.398462
921 1 0.00337234 0.601576 0.402269
929 1 0.205639 0.599231 0.398657
937 1 0.401952 0.592125 0.400288
945 1 0.595068 0.598851 0.40375
953 1 0.803779 0.594883 0.398438
923 1 0.0936682 0.702767 0.396667
931 1 0.299731 0.702545 0.402622
939 1 0.497807 0.702597 0.398296
947 1 0.699546 0.696804 0.403126
955 1 0.895193 0.696287 0.401785
969 1 0.197662 0.806349 0.400996
977 1 0.396157 0.801337 0.402929
985 1 0.601925 0.799733 0.399274
993 1 0.795145 0.79675 0.400824
961 1 0.998433 0.798674 0.401532
963 1 0.0933834 0.895195 0.402367
971 1 0.302266 0.897427 0.402302
979 1 0.504066 0.896535 0.39927
987 1 0.699283 0.896609 0.400045
995 1 0.89788 0.896195 0.397073
833 1 0.802634 0.0030913 0.398388
801 1 0.996177 0.00143408 0.398001
802 1 0.102866 0.00488052 0.4524
808 2 0.148892 0.0479818 0.425259
810 1 0.30232 0.994758 0.449545
816 2 0.3473 0.0504634 0.423366
818 1 0.501832 0.0041182 0.453451
824 2 0.548071 0.0459484 0.4235
826 1 0.7002 0.00181953 0.449538
832 2 0.74402 0.0455982 0.423236
840 2 0.950448 0.0503315 0.422561
806 2 0.0489749 0.149816 0.426428
812 1 0.195196 0.101417 0.449656
814 2 0.245513 0.142352 0.421612
820 1 0.400694 0.0965972 0.451891
822 2 0.44516 0.14472 0.426955
828 1 0.602502 0.0991281 0.450334
830 2 0.644974 0.14814 0.42302
836 1 0.791312 0.100443 0.446132
838 2 0.843953 0.150452 0.421982
804 1 0.00250809 0.0938838 0.451082
842 1 0.104655 0.203297 0.450213
850 1 0.293381 0.198033 0.447331
858 1 0.504419 0.206481 0.452597
866 1 0.694867 0.204372 0.447522
874 1 0.905061 0.194722 0.448274
848 2 0.149939 0.256984 0.426092
852 1 0.202589 0.300549 0.44982
856 2 0.345992 0.250875 0.42598
860 1 0.395196 0.294841 0.452015
864 2 0.548866 0.245129 0.422932
868 1 0.597129 0.301305 0.451414
872 2 0.749998 0.246216 0.421496
876 1 0.804093 0.297738 0.447841
844 1 0.997544 0.29644 0.450167
880 2 0.955325 0.250382 0.424968
846 2 0.0557835 0.357441 0.422444
854 2 0.249959 0.355491 0.424218
862 2 0.443945 0.343233 0.427629
870 2 0.648468 0.343996 0.424595
878 2 0.849119 0.352125 0.426474
882 1 0.100214 0.402561 0.45368
888 2 0.152634 0.455623 0.426709
890 1 0.30073 0.399506 0.451505
896 2 0.346751 0.448666 0.426978
898 1 0.499799 0.397275 0.452155
904 2 0.546888 0.452318 0.425816
906 1 0.692807 0.40167 0.44848
912 2 0.756225 0.447255 0.427222
914 1 0.896378 0.394458 0.450279
920 2 0.948191 0.454942 0.424486
884 1 0.00183656 0.494339 0.451795
892 1 0.204113 0.504328 0.448493
900 1 0.394352 0.506238 0.452422
908 1 0.604194 0.495446 0.448625
916 1 0.806512 0.498693 0.450274
886 2 0.0492692 0.551914 0.423709
922 1 0.0957995 0.606757 0.45017
894 2 0.253171 0.550427 0.422649
930 1 0.301586 0.592773 0.45145
902 2 0.455403 0.544718 0.426406
938 1 0.493944 0.595251 0.451561
910 2 0.651168 0.554307 0.422392
946 1 0.699943 0.601919 0.452306
918 2 0.852505 0.548576 0.425886
954 1 0.90481 0.595368 0.449468
928 2 0.149096 0.653794 0.421444
936 2 0.350014 0.643068 0.42359
944 2 0.550171 0.654843 0.428227
952 2 0.748419 0.649021 0.423481
960 2 0.949572 0.644895 0.423323
924 1 0.995179 0.698338 0.452783
926 2 0.0512242 0.751035 0.423038
932 1 0.203141 0.698339 0.449504
934 2 0.254159 0.753973 0.425989
940 1 0.401098 0.703541 0.452028
942 2 0.455589 0.755715 0.422596
948 1 0.605262 0.707154 0.452333
950 2 0.645757 0.754431 0.423795
956 1 0.796408 0.70062 0.447698
958 2 0.84384 0.752706 0.426616
962 1 0.0949372 0.794337 0.449404
970 1 0.301881 0.80458 0.451737
978 1 0.499649 0.796287 0.453092
986 1 0.698407 0.800719 0.44752
994 1 0.89402 0.804404 0.449581
964 1 0.00173379 0.900324 0.451014
968 2 0.15153 0.855527 0.424464
972 1 0.198268 0.90683 0.448131
976 2 0.349034 0.851742 0.427989
980 1 0.400074 0.896695 0.44874
984 2 0.547566 0.854121 0.426601
988 1 0.602501 0.908146 0.448022
992 2 0.748815 0.852011 0.425703
996 1 0.803334 0.897647 0.448013
1000 2 0.947608 0.855311 0.426069
966 2 0.0532282 0.954048 0.425534
974 2 0.252046 0.953356 0.424702
982 2 0.451403 0.95481 0.427969
990 2 0.655245 0.956319 0.421879
834 1 0.89667 0.00313333 0.450745
998 2 0.854563 0.948204 0.426943
807 2 0.0488383 0.0431721 0.475519
815 2 0.253927 0.0457356 0.475022
823 2 0.445185 0.0485554 0.476403
831 2 0.646791 0.0543808 0.47817
839 2 0.847934 0.0532334 0.473445
805 2 0.151488 0.146358 0.47677
813 2 0.34797 0.152852 0.475098
821 2 0.548106 0.146429 0.472373
829 2 0.742944 0.147749 0.475283
837 2 0.949277 0.153355 0.476709
847 2 0.0458805 0.250462 0.477168
855 2 0.255348 0.24923 0.47806
863 2 0.452279 0.254739 0.477118
871 2 0.654822 0.248373 0.476245
879 2 0.847552 0.250509 0.472682
845 2 0.151611 0.345574 0.475266
853 2 0.350911 0.348462 0.473559
861 2 0.557831 0.357574 0.475536
869 2 0.747222 0.350701 0.472909
877 2 0.945895 0.348147 0.475379