ITEM: TIMESTEP
400
ITEM: NUMBER OF ATOMS
1250
ITEM: BOX BOUNDS pp pp pp
0.0000000000000000e+00 3.7500000000000000e+01
0.0000000000000000e+00 3.7500000000000000e+01
-1.5000000000000000e+01 6.0000000000000000e+01
ITEM: ATOMS id type xs ys zs
1 1 0 0 0
8 2 0.15 0.05 0.025
9 1 0.2 0 0
16 2 0.35 0.05 0.025
17 1 0.4 0 0
24 2 0.55 0.05 0.025
25 1 0.6 0 0
32 2 0.75 0.05 0.025
33 1 0.8 0 0
40 2 0.95 0.05 0.025
3 1 0.1 0.1 0
11 1 0.3 0.1 0
19 1 0.5 0.1 0
27 1 0.7 0.1 0
35 1 0.9 0.1 0
6 2 0.05 0.15 0.025
41 1 0 0.2 0
49 1 0.2 0.2 0
14 2 0.25 0.15 0.025
57 1 0.4 0.2 0
22 2 0.45 0.15 0.025
65 1 0.6 0.2 0
30 2 0.65 0.15 0.025
38 2 0.85 0.15 0.025
73 1 0.8 0.2 0
48 2 0.15 0.25 0.025
56 2 0.35 0.25 0.025
64 2 0.55 0.25 0.025
72 2 0.75 0.25 0.025
80 2 0.95 0.25 0.025
46 2 0.05 0.35 0.025
43 1 0.1 0.3 0
54 2 0.25 0.35 0.025
51 1 0.3 0.3 0
62 2 0.45 0.35 0.025
59 1 0.5 0.3 0
67 1 0.7 0.3 0
70 2 0.65 0.35 0.025
78 2 0.85 0.35 0.025
75 1 0.9 0.3 0
81 1 0 0.4 0
89 1 0.2 0.4 0
97 1 0.4 0.4 0
105 1 0.6 0.4 0
113 1 0.8 0.4 0
88 2 0.15 0.45 0.025
96 2 0.35 0.45 0.025
104 2 0.55 0.45 0.025
112 2 0.75 0.45 0.025
120 2 0.95 0.45 0.025
86 2 0.05 0.55 0.025
83 1 0.1 0.5 0
94 2 0.25 0.55 0.025
91 1 0.3 0.5 0
102 2 0.45 0.55 0.025
99 1 0.5 0.5 0
107 1 0.7 0.5 0
110 2 0.65 0.55 0.025
118 2 0.85 0.55 0.025
115 1 0.9 0.5 0
121 1 0 0.6 0
129 1 0.2 0.6 0
137 1 0.4 0.6 0
145 1 0.6 0.6 0
153 1 0.8 0.6 0
123 1 0.1 0.7 0
128 2 0.15 0.65 0.025
131 1 0.3 0.7 0
136 2 0.35 0.65 0.025
139 1 0.5 0.7 0
144 2 0.55 0.65 0.025
147 1 0.7 0.7 0
152 2 0.75 0.65 0.025
155 1 0.9 0.7 0
160 2 0.95 0.65 0.025
126 2 0.05 0.75 0.025
134 2 0.25 0.75 0.025
142 2 0.45 0.75 0.025
150 2 0.65 0.75 0.025
158 2 0.85 0.75 0.025
161 1 0 0.8 0
168 2 0.15 0.85 0.025
169 1 0.2 0.8 0
176 2 0.35 0.85 0.025
177 1 0.4 0.8 0
184 2 0.55 0.85 0.025
185 1 0.6 0.8 0
192 2 0.75 0.85 0.025
193 1 0.8 0.8 0
200 2 0.95 0.85 0.025
163 1 0.1 0.9 0
171 1 0.3 0.9 0
179 1 0.5 0.9 0
187 1 0.7 0.9 0
195 1 0.9 0.9 0
166 2 0.05 0.95 0.025
174 2 0.25 0.95 0.025
182 2 0.45 0.95 0.025
190 2 0.65 0.95 0.025
198 2 0.85 0.95 0.025
7 2 0.0500749 0.0503677 0.0696183
2 1 0.1 0 0.05
15 2 0.249776 0.0500073 0.0697827
10 1 0.3 0 0.05
23 2 0.450223 0.0501507 0.0698026
18 1 0.5 0 0.05
26 1 0.7 0 0.05
31 2 0.65011 0.0499751 0.0696386
39 2 0.850314 0.0501141 0.0696343
34 1 0.9 0 0.05
4 1 0 0.1 0.05
12 1 0.2 0.1 0.05
20 1 0.4 0.1 0.05
28 1 0.6 0.1 0.05
36 1 0.8 0.1 0.05
42 1 0.1 0.2 0.05
5 2 0.149808 0.150115 0.0694378
50 1 0.3 0.2 0.05
13 2 0.349891 0.150208 0.0698141
58 1 0.5 0.2 0.05
21 2 0.550201 0.150306 0.0694383
66 1 0.7 0.2 0.05
29 2 0.750363 0.149825 0.069469
74 1 0.9 0.2 0.05
37 2 0.950203 0.149713 0.0697917
47 2 0.0496832 0.250249 0.0693701
55 2 0.249853 0.250235 0.0697855
63 2 0.449884 0.249766 0.0696697
71 2 0.650366 0.249646 0.0695846
79 2 0.849791 0.250373 0.0695402
44 1 0 0.3 0.05
52 1 0.2 0.3 0.05
45 2 0.149541 0.35026 0.0695064
53 2 0.349827 0.349974 0.069467
60 1 0.4 0.3 0.05
61 2 0.550378 0.349956 0.0696176
68 1 0.6 0.3 0.05
69 2 0.750151 0.349643 0.0695854
76 1 0.8 0.3 0.05
77 2 0.949965 0.350198 0.069723
82 1 0.1 0.4 0.05
90 1 0.3 0.4 0.05
98 1 0.5 0.4 0.05
106 1 0.7 0.4 0.05
114 1 0.9 0.4 0.05
87 2 0.0496913 0.449697 0.069559
95 2 0.250237 0.450127 0.0697118
103 2 0.44993 0.4501 0.0694354
111 2 0.650121 0.449558 0.0696482
119 2 0.850039 0.449495 0.0694752
84 1 0 0.5 0.05
92 1 0.2 0.5 0.05
85 2 0.149622 0.549906 0.0695666
93 2 0.349923 0.550296 0.0697261
100 1 0.4 0.5 0.05
101 2 0.550186 0.550434 0.0697915
108 1 0.6 0.5 0.05
109 2 0.750321 0.549681 0.069738
116 1 0.8 0.5 0.05
117 2 0.950012 0.550358 0.069541
122 1 0.1 0.6 0.05
130 1 0.3 0.6 0.05
138 1 0.5 0.6 0.05
146 1 0.7 0.6 0.05
154 1 0.9 0.6 0.05
124 1 0 0.7 0.05
127 2 0.0504047 0.650305 0.0694177
132 1 0.2 0.7 0.05
135 2 0.249724 0.649821 0.0697089
140 1 0.4 0.7 0.05
143 2 0.450089 0.650391 0.0694914
148 1 0.6 0.7 0.05
151 2 0.649748 0.650079 0.0694489
156 1 0.8 0.7 0.05
159 2 0.850054 0.650201 0.0697571
125 2 0.150535 0.750145 0.0698108
133 2 0.350085 0.749781 0.0694978
141 2 0.549741 0.75027 0.0698042
149 2 0.749881 0.750046 0.0695816
157 2 0.95004 0.750292 0.0696133
167 2 0.049947 0.850358 0.0694187
162 1 0.1 0.8 0.05
175 2 0.250389 0.850068 0.069734
170 1 0.3 0.8 0.05
183 2 0.450249 0.850347 0.0695437
178 1 0.5 0.8 0.05
186 1 0.7 0.8 0.05
191 2 0.650239 0.849592 0.069794
199 2 0.850265 0.849897 0.0697491
194 1 0.9 0.8 0.05
164 1 0 0.9 0.05
172 1 0.2 0.9 0.05
180 1 0.4 0.9 0.05
188 1 0.6 0.9 0.05
196 1 0.8 0.9 0.05
165 2 0.149527 0.949761 0.0697956
173 2 0.34995 0.949917 0.0697669
181 2 0.549527 0.949752 0.0695574
189 2 0.750343 0.9501 0.0694463
197 2 0.949689 0.94981 0.0695408
201 1 5.49042e-05 0.000253779 0.0893499
209 1 0.199869 -0.000317276 0.089275
217 1 0.399632 0.00045195 0.0893607
225 1 0.599443 -0.000219314 0.0892482
233 1 0.800375 -8.33773e-05 0.0890714
203 1 0.100296 0.100182 0.0890667
211 1 0.299961 0.10021 0.0893197
219 1 0.50034 0.100497 0.0890525
227 1 0.700202 0.100255 0.089077
235 1 0.900134 0.100088 0.0891587
241 1 0.000106965 0.200201 0.0892616
249 1 0.200266 0.19968 0.0892369
257 1 0.400126 0.200036 0.0894691
265 1 0.599884 0.200302 0.0893457
273 1 0.799818 0.200218 0.0891011
243 1 0.099776 0.299597 0.0893264
251 1 0.299798 0.299929 0.0890978
259 1 0.500003 0.299724 0.0891937
267 1 0.700354 0.299806 0.0893418
275 1 0.900147 0.300235 0.0893905
281 1 -1.12958e-05 0.399627 0.0892429
289 1 0.200004 0.399967 0.0893044
297 1 0.400126 0.400057 0.0890887
305 1 0.600179 0.399564 0.0895504
313 1 0.800085 0.399925 0.0894197
283 1 0.100024 0.500073 0.0890908
291 1 0.299681 0.500024 0.0893856
299 1 0.500302 0.500325 0.0894581
307 1 0.700175 0.500177 0.0892364
315 1 0.899777 0.499644 0.0892999
329 1 0.199562 0.59977 0.0893325
337 1 0.400304 0.600375 0.0895419
345 1 0.600471 0.599701 0.0892868
353 1 0.799613 0.599992 0.0891903
321 1 0.999888 0.600568 0.0893248
323 1 0.100092 0.700077 0.0891131
331 1 0.300162 0.6999 0.0890756
339 1 0.499646 0.700441 0.0895202
347 1 0.700281 0.699793 0.0894624
355 1 0.89994 0.700132 0.0893347
361 1 0.000238899 0.800187 0.0892667
369 1 0.200585 0.800411 0.0892816
377 1 0.399737 0.80031 0.0893172
385 1 0.599943 0.800103 0.0895391
393 1 0.799704 0.800013 0.0894112
363 1 0.0997471 0.899584 0.0891978
371 1 0.300022 0.900008 0.0895688
379 1 0.499986 0.899683 0.0894136
387 1 0.700355 0.90009 0.0891861
395 1 0.899851 0.899654 0.0893477
202 1 0.100157 0.000117156 0.128787
208 2 0.149695 0.0502791 0.108795
216 2 0.349862 0.0503549 0.108856
210 1 0.299647 0.000265619 0.12862
224 2 0.549578 0.0503198 0.109191
218 1 0.499821 -5.47414e-05 0.128587
226 1 0.699804 -0.000241594 0.128484
232 2 0.750096 0.0501536 0.108933
234 1 0.900529 -0.000403295 0.128483
240 2 0.950016 0.05029 0.108829
204 1 -0.00025699 0.100077 0.128618
212 1 0.199905 0.100201 0.128845
220 1 0.399977 0.0995456 0.12849
228 1 0.599742 0.100284 0.128713
236 1 0.799826 0.0997736 0.128593
206 2 0.0503201 0.150111 0.108871
242 1 0.1005 0.199899 0.128702
214 2 0.250083 0.150224 0.109039
250 1 0.300239 0.19987 0.128929
222 2 0.449851 0.149729 0.108779
258 1 0.499587 0.199969 0.128643
230 2 0.650106 0.149924 0.108794
266 1 0.700129 0.199942 0.128407
238 2 0.849548 0.149805 0.109139
274 1 0.899522 0.199773 0.12876
248 2 0.14989 0.250201 0.108828
256 2 0.350079 0.249994 0.108988
264 2 0.549954 0.250045 0.109029
272 2 0.750224 0.249692 0.108976
280 2 0.949887 0.249561 0.10885
246 2 0.0503946 0.349672 0.108866
244 1 1.54697e-05 0.299708 0.128457
252 1 0.200005 0.300369 0.128575
254 2 0.249795 0.350113 0.10879
260 1 0.400348 0.299587 0.12887
262 2 0.449811 0.349991 0.109158
268 1 0.600101 0.300244 0.128715
270 2 0.650347 0.35017 0.109036
278 2 0.849898 0.350335 0.108862
276 1 0.800065 0.300269 0.128674
282 1 0.100119 0.399722 0.128794
290 1 0.299693 0.39952 0.128865
298 1 0.50012 0.399788 0.128834
306 1 0.700136 0.399756 0.128598
314 1 0.899729 0.399924 0.128715
288 2 0.150213 0.449745 0.109125
292 1 0.200214 0.499702 0.128596
296 2 0.349936 0.449969 0.109237
300 1 0.400293 0.500462 0.128627
304 2 0.550022 0.449857 0.108945
308 1 0.600054 0.499885 0.12859
312 2 0.750224 0.450027 0.108897
316 1 0.799937 0.500289 0.128535
320 2 0.949823 0.450101 0.109096
286 2 0.0499848 0.549865 0.108798
284 1 3.75739e-05 0.499791 0.128599
294 2 0.249646 0.549999 0.108801
302 2 0.450318 0.550349 0.109112
310 2 0.649955 0.55003 0.108878
318 2 0.849777 0.550174 0.108703
322 1 0.10029 0.600073 0.128825
330 1 0.300064 0.600287 0.128617
338 1 0.500394 0.599739 0.128488
346 1 0.700039 0.600333 0.128589
354 1 0.899717 0.59938 0.128877
324 1 0.000385535 0.699642 0.12855
328 2 0.150104 0.650332 0.108947
332 1 0.200412 0.700065 0.128754
336 2 0.349846 0.650252 0.109183
340 1 0.399829 0.699614 0.128749
344 2 0.549946 0.649617 0.108827
348 1 0.599936 0.699642 0.128669
352 2 0.749929 0.649926 0.108969
356 1 0.800365 0.700165 0.128876
360 2 0.949465 0.650142 0.108972
326 2 0.0497482 0.74984 0.108788
334 2 0.250348 0.750232 0.109029
342 2 0.45009 0.750276 0.109309
350 2 0.650441 0.749968 0.109225
358 2 0.850297 0.750104 0.108804
362 1 0.100167 0.800097 0.128604
368 2 0.150104 0.849904 0.108804
376 2 0.3497 0.850205 0.109202
370 1 0.299973 0.799835 0.128806
378 1 0.500347 0.800238 0.128904
384 2 0.550478 0.850459 0.10894
386 1 0.700569 0.799984 0.12891
392 2 0.750128 0.850361 0.10923
394 1 0.899859 0.799567 0.128732
400 2 0.950254 0.849689 0.109201
364 1 0.000364654 0.899988 0.128605
372 1 0.199534 0.899889 0.12884
380 1 0.400408 0.900114 0.128701
388 1 0.600549 0.899986 0.128696
396 1 0.800305 0.899807 0.128981
366 2 0.0501348 0.950365 0.108897
374 2 0.249559 0.949611 0.109
382 2 0.450042 0.950422 0.10873
390 2 0.649621 0.949867 0.108821
398 2 0.850252 0.950101 0.108935
207 2 0.0500674 0.0500077 0.148245
401 1 -0.000278577 -0.000156689 0.168147
409 1 0.199814 1.83421e-05 0.168228
215 2 0.249991 0.0497459 0.148254
223 2 0.4503 0.0495649 0.148285
231 2 0.649848 0.0501317 0.148361
239 2 0.850041 0.0495725 0.148036
403 1 0.100082 0.100142 0.16824
411 1 0.299454 0.0998468 0.168253
419 1 0.500145 0.0998133 0.168144
427 1 0.699528 0.100399 0.167925
435 1 0.899646 0.0995509 0.168065
441 1 -0.000291847 0.199553 0.167922
205 2 0.150289 0.150111 0.148458
449 1 0.199959 0.199923 0.168225
213 2 0.350271 0.149754 0.148582
457 1 0.399889 0.200445 0.1683
221 2 0.549519 0.150245 0.148502
465 1 0.59948 0.200447 0.168216
229 2 0.749974 0.149781 0.148186
473 1 0.800006 0.200071 0.167868
237 2 0.949532 0.149531 0.148432
247 2 0.0503304 0.250013 0.148427
255 2 0.249823 0.249708 0.14846
263 2 0.449804 0.249858 0.148297
271 2 0.650328 0.249633 0.148381
279 2 0.849638 0.250111 0.148177
443 1 0.0999499 0.300176 0.168069
245 2 0.149769 0.350238 0.148218
253 2 0.350431 0.349634 0.14858
451 1 0.300053 0.299493 0.168107
459 1 0.499894 0.30002 0.167857
261 2 0.550083 0.349842 0.148293
467 1 0.700083 0.299614 0.168106
269 2 0.750068 0.349978 0.148167
475 1 0.899896 0.299669 0.168081
277 2 0.95008 0.349908 0.148283
489 1 0.199418 0.399819 0.16824
497 1 0.399923 0.400449 0.168261
505 1 0.600016 0.399929 0.168129
513 1 0.799921 0.399921 0.16785
481 1 1.00044 0.399859 0.167902
287 2 0.050136 0.450023 0.148355
295 2 0.24958 0.45025 0.148613
491 1 0.300091 0.500195 0.168019
303 2 0.450223 0.450117 0.148319
499 1 0.500373 0.499765 0.168216
311 2 0.649743 0.449864 0.148193
507 1 0.69955 0.500085 0.167875
319 2 0.849744 0.450067 0.148418
483 1 0.0996452 0.500284 0.168252
285 2 0.149767 0.549817 0.148585
293 2 0.350351 0.550393 0.14822
301 2 0.549982 0.549887 0.148439
309 2 0.749872 0.549825 0.148547
515 1 0.899662 0.499773 0.168155
317 2 0.950399 0.549528 0.148493
529 1 0.199936 0.59983 0.168251
537 1 0.399812 0.600037 0.167872
545 1 0.600132 0.599722 0.167838
553 1 0.799915 0.600111 0.168035
521 1 1.0005 0.599633 0.167955
327 2 0.0500764 0.650018 0.148176
523 1 0.10042 0.700347 0.167924
335 2 0.250155 0.649554 0.148592
531 1 0.299651 0.699578 0.168241
343 2 0.450372 0.649732 0.148135
539 1 0.50019 0.700407 0.168212
351 2 0.649689 0.650211 0.148452
547 1 0.699981 0.700297 0.167899
359 2 0.85025 0.649715 0.148381
555 1 0.900433 0.700085 0.167883
325 2 0.150234 0.750276 0.148167
333 2 0.350081 0.749494 0.148384
341 2 0.55017 0.749772 0.14847
349 2 0.75042 0.750264 0.148629
357 2 0.950398 0.749667 0.148092
367 2 0.0503932 0.8497 0.148213
561 1 0.000368496 0.800039 0.167799
569 1 0.199817 0.799784 0.168243
375 2 0.249543 0.84961 0.148197
577 1 0.400136 0.800056 0.168029
383 2 0.449855 0.849948 0.148331
585 1 0.600281 0.80025 0.168223
391 2 0.650552 0.85012 0.148528
399 2 0.85061 0.849711 0.148659
593 1 0.800561 0.800265 0.168222
563 1 0.100392 0.899658 0.168031
571 1 0.299623 0.899653 0.167906
579 1 0.500128 0.899627 0.167842
587 1 0.700123 0.900051 0.168296
595 1 0.900254 0.900402 0.168287
365 2 0.150056 0.949954 0.148299
373 2 0.349635 0.950142 0.148336
417 1 0.399748 0.999781 0.16824
381 2 0.549869 0.949741 0.148156
425 1 0.599776 1.00001 0.16786
389 2 0.74958 0.950176 0.148507
433 1 0.799589 1.00031 0.167888
397 2 0.949763 0.949549 0.148401
408 2 0.150031 0.0502856 0.187986
416 2 0.349738 0.0502041 0.187881
424 2 0.550365 0.0496384 0.18775
432 2 0.750002 0.0504602 0.187647
434 1 0.899552 -0.000457135 0.207314
440 2 0.949543 0.0495389 0.187933
412 1 0.200284 0.100226 0.207617
420 1 0.400252 0.100266 0.207444
428 1 0.600135 0.100434 0.207254
436 1 0.800016 0.0999615 0.207529
404 1 0.999501 0.100162 0.207262
406 2 0.049921 0.149835 0.187735
442 1 0.0996841 0.200327 0.207556
414 2 0.249849 0.150427 0.18785
450 1 0.30022 0.200131 0.207422
422 2 0.449716 0.149872 0.187625
458 1 0.499629 0.200096 0.207414
430 2 0.649665 0.150531 0.187555
466 1 0.700086 0.199553 0.207375
438 2 0.850313 0.150067 0.187916
474 1 0.900194 0.199905 0.20765
448 2 0.150095 0.249963 0.187553
456 2 0.349961 0.249967 0.187978
464 2 0.54981 0.250112 0.187828
472 2 0.750218 0.249913 0.187607
480 2 0.950385 0.250242 0.187667
446 2 0.0502279 0.349655 0.187582
452 1 0.200116 0.300221 0.207607
454 2 0.249817 0.349877 0.187553
460 1 0.400444 0.29987 0.207307
462 2 0.450023 0.35039 0.187789
468 1 0.599603 0.300094 0.207519
470 2 0.65018 0.349493 0.187764
478 2 0.849884 0.350244 0.187556
476 1 0.800017 0.299795 0.207449
444 1 1.00002 0.300202 0.207332
482 1 0.100083 0.399886 0.207204
490 1 0.299987 0.40015 0.207301
498 1 0.499785 0.400286 0.207624
506 1 0.699536 0.399756 0.207398
514 1 0.899903 0.400184 0.207384
488 2 0.149746 0.450265 0.187841
496 2 0.34974 0.450019 0.187766
504 2 0.549642 0.449406 0.187918
512 2 0.749884 0.449823 0.18782
520 2 0.950239 0.450008 0.187507
486 2 0.0500914 0.550077 0.187807
492 1 0.199748 0.499829 0.207238
494 2 0.249647 0.550229 0.187748
500 1 0.399794 0.499977 0.207383
502 2 0.449678 0.550266 0.187736
508 1 0.599852 0.499385 0.20723
510 2 0.649642 0.549677 0.187922
518 2 0.849848 0.550225 0.187941
516 1 0.800525 0.499504 0.207295
484 1 1.00002 0.499828 0.207555
522 1 0.100166 0.600035 0.207604
530 1 0.299849 0.600014 0.207431
538 1 0.499977 0.599717 0.207506
546 1 0.70039 0.599986 0.20726
554 1 0.900215 0.600345 0.20746
528 2 0.149889 0.6497 0.187673
532 1 0.199437 0.699591 0.20743
536 2 0.350174 0.649869 0.187576
540 1 0.399949 0.699942 0.207448
544 2 0.550401 0.650191 0.187639
548 1 0.599982 0.699796 0.20754
552 2 0.750273 0.650344 0.187497
556 1 0.799588 0.700441 0.207454
560 2 0.950466 0.649599 0.187714
524 1 1.00009 0.700039 0.207542
526 2 0.0498992 0.750061 0.187723
534 2 0.249562 0.749674 0.18791
542 2 0.449633 0.750284 0.187951
550 2 0.650338 0.749599 0.18773
558 2 0.850175 0.749733 0.187565
562 1 0.100076 0.799862 0.207546
568 2 0.150078 0.850204 0.187816
576 2 0.349906 0.850005 0.18789
570 1 0.29972 0.799657 0.207386
584 2 0.550287 0.849917 0.187674
578 1 0.500305 0.799784 0.207169
586 1 0.700223 0.800002 0.207336
592 2 0.750294 0.849942 0.187558
594 1 0.900105 0.799846 0.207262
600 2 0.950096 0.850213 0.187549
564 1 0.000149392 0.899942 0.207412
572 1 0.199977 0.899711 0.207424
580 1 0.400499 0.900137 0.207282
588 1 0.600074 0.900101 0.207464
596 1 0.800378 0.899895 0.207133
566 2 0.0499772 0.949653 0.187738
402 1 0.0997319 0.99966 0.207325
574 2 0.250404 0.949746 0.187646
410 1 0.300137 1.00028 0.207527
582 2 0.450244 0.949603 0.187515
418 1 0.500326 0.999563 0.20746
590 2 0.649851 0.949655 0.187676
426 1 0.699607 1.00007 0.207206
598 2 0.849762 0.950246 0.187533
407 2 0.0498823 0.0503539 0.227153
415 2 0.249575 0.0498319 0.227285
423 2 0.45009 0.0500723 0.227203
431 2 0.6498 0.0499688 0.227249
439 2 0.850251 0.0498156 0.227221
603 1 0.100308 0.100385 0.246797
611 1 0.299622 0.100055 0.24692
619 1 0.499654 0.0996553 0.246642
627 1 0.699664 0.099583 0.246913
635 1 0.900439 0.100124 0.24696
405 2 0.149999 0.150022 0.226985
649 1 0.200053 0.200248 0.246627
413 2 0.350173 0.150128 0.227085
657 1 0.400431 0.200175 0.246674
421 2 0.549576 0.150071 0.22696
665 1 0.599608 0.200398 0.24661
429 2 0.750366 0.149763 0.22723
673 1 0.800507 0.200284 0.246937
437 2 0.950093 0.150063 0.227364
641 1 0.999908 0.200012 0.24701
447 2 0.0499339 0.249901 0.227197
455 2 0.25042 0.249896 0.226941
463 2 0.449877 0.249652 0.227172
471 2 0.649684 0.249717 0.226959
479 2 0.850139 0.250198 0.226976
643 1 0.100458 0.300035 0.246664
445 2 0.149919 0.350308 0.226902
453 2 0.349993 0.350158 0.22714
651 1 0.299917 0.299878 0.24676
461 2 0.549884 0.350337 0.226962
659 1 0.499882 0.299869 0.246596
667 1 0.700215 0.299817 0.246779
469 2 0.75005 0.350378 0.227018
675 1 0.900055 0.29953 0.24691
477 2 0.949887 0.349699 0.227181
689 1 0.199882 0.399691 0.246553
697 1 0.400211 0.400103 0.246602
705 1 0.60044 0.399814 0.246925
713 1 0.80017 0.400441 0.246708
681 1 1.00014 0.399957 0.247022
487 2 0.0499048 0.449713 0.227321
495 2 0.249528 0.449759 0.226832
503 2 0.450206 0.450276 0.226888
511 2 0.65029 0.450386 0.227226
519 2 0.85042 0.450016 0.227287
683 1 0.0999436 0.499667 0.246951
485 2 0.1498 0.550082 0.227274
493 2 0.350062 0.550109 0.227159
691 1 0.29978 0.499804 0.246668
501 2 0.550174 0.549565 0.227269
699 1 0.499901 0.499775 0.246938
707 1 0.700263 0.500075 0.246777
509 2 0.750404 0.549761 0.226962
715 1 0.900315 0.500032 0.246733
517 2 0.949906 0.550332 0.227248
729 1 0.199709 0.600215 0.246748
737 1 0.400124 0.600036 0.246521
745 1 0.600039 0.60037 0.246858
753 1 0.800261 0.600213 0.246811
721 1 1.00038 0.599969 0.246685
527 2 0.0503262 0.64974 0.227274
723 1 0.0998226 0.699955 0.246946
535 2 0.249638 0.65019 0.227272
731 1 0.300402 0.700081 0.246643
543 2 0.450503 0.650218 0.227123
739 1 0.500012 0.700492 0.246875
551 2 0.650418 0.649782 0.227083
747 1 0.699635 0.700206 0.246575
559 2 0.849812 0.650083 0.226875
755 1 0.899932 0.699582 0.246808
525 2 0.14969 0.749803 0.227341
533 2 0.350207 0.750506 0.226893
541 2 0.54984 0.750096 0.227237
549 2 0.749786 0.749955 0.227144
557 2 0.949673 0.750415 0.227196
567 2 0.0502451 0.850399 0.227217
769 1 0.199905 0.799681 0.24677
575 2 0.249944 0.849757 0.226999
777 1 0.400364 0.800382 0.246735
583 2 0.450616 0.84976 0.226815
785 1 0.599906 0.800149 0.246813
591 2 0.649959 0.849843 0.227075
599 2 0.849794 0.850102 0.226937
793 1 0.80007 0.79998 0.246657
761 1 1.0002 0.800555 0.246998
763 1 0.100288 0.900409 0.246961
771 1 0.300113 0.900358 0.246652
779 1 0.500458 0.899776 0.246697
787 1 0.69994 0.899534 0.246916
795 1 0.899637 0.899731 0.24657
565 2 0.150346 0.950026 0.227221
609 1 0.199597 1.00003 0.247065
573 2 0.350255 0.95007 0.227104
617 1 0.400113 0.999564 0.246595
581 2 0.550127 0.949801 0.227311
625 1 0.599902 1.00021 0.246727
589 2 0.749697 0.949565 0.226928
633 1 0.799775 0.999505 0.246858
597 2 0.950311 0.950383 0.227165
601 1 1.00002 1.00032 0.246954
608 2 0.149651 0.0504188 0.266674
616 2 0.350087 0.0499858 0.266177
624 2 0.549778 0.0497903 0.266574
632 2 0.75005 0.0497977 0.266435
640 2 0.950178 0.0497563 0.266692
606 2 0.049802 0.149701 0.266581
614 2 0.250205 0.150314 0.266358
622 2 0.450244 0.15016 0.266627
630 2 0.649481 0.149937 0.266249
638 2 0.850042 0.149798 0.266552
648 2 0.149678 0.249735 0.266708
656 2 0.35008 0.249672 0.266535
664 2 0.549601 0.250143 0.266649
672 2 0.749971 0.249691 0.266574
680 2 0.950393 0.250277 0.266514
646 2 0.0501673 0.349965 0.266636
654 2 0.249787 0.349854 0.266211
662 2 0.449727 0.349824 0.266632
670 2 0.650171 0.349561 0.266398
678 2 0.850031 0.349968 0.266301
688 2 0.149827 0.449951 0.266637
696 2 0.350419 0.450035 0.266273
704 2 0.550246 0.449613 0.266483
712 2 0.749689 0.449792 0.266388
720 2 0.949893 0.449844 0.266304
686 2 0.0495784 0.549667 0.266661
694 2 0.250188 0.54999 0.266371
702 2 0.450233 0.550316 0.266241
710 2 0.650155 0.550074 0.266463
718 2 0.850096 0.549783 0.266356
728 2 0.149785 0.649933 0.266616
736 2 0.350281 0.650167 0.266305
744 2 0.549724 0.650268 0.266374
752 2 0.749871 0.65034 0.266398
760 2 0.950104 0.650045 0.26637
726 2 0.0498806 0.7503 0.266411
734 2 0.249742 0.749733 0.266644
742 2 0.449775 0.749748 0.266532
750 2 0.649538 0.749777 0.266498
758 2 0.84987 0.749891 0.266376
768 2 0.150112 0.850176 0.266331
776 2 0.350169 0.850223 0.266535
784 2 0.550364 0.850237 0.266722
792 2 0.750124 0.849728 0.266546
800 2 0.949546 0.850304 0.266502
766 2 0.0501643 0.949991 0.266659
774 2 0.249749 0.949913 0.266698
782 2 0.45046 0.949907 0.266494
790 2 0.649519 0.949702 0.266524
798 2 0.850188 0.949811 0.266517
607 2 0.0502308 0.0498362 0.305767
615 2 0.249972 0.049762 0.305936
623 2 0.449675 0.0497497 0.305761
631 2 0.650245 0.05031 0.306021
639 2 0.849812 0.0505379 0.306036
612 1 0.200143 0.0997792 0.286276
620 1 0.399779 0.10014 0.286111
628 1 0.600052 0.0996116 0.286329
636 1 0.800151 0.0998343 0.286055
604 1 0.999841 0.0999583 0.286014
642 1 0.0996414 0.199762 0.28619
605 2 0.149589 0.149719 0.305641
650 1 0.299625 0.200026 0.286314
613 2 0.349759 0.150072 0.305816
658 1 0.499947 0.200149 0.28598
621 2 0.549539 0.150059 0.305755
666 1 0.700013 0.200059 0.286221
629 2 0.749985 0.149714 0.305895
674 1 0.900418 0.200078 0.285897
637 2 0.949693 0.150308 0.305847
647 2 0.0498928 0.249798 0.305705
655 2 0.249852 0.250033 0.3059
663 2 0.450244 0.249703 0.305611
671 2 0.6499 0.250125 0.305959
679 2 0.850106 0.249945 0.305607
652 1 0.200259 0.300046 0.285919
645 2 0.150169 0.349817 0.305713
653 2 0.349605 0.350153 0.305862
660 1 0.399654 0.300099 0.286124
661 2 0.550232 0.35046 0.3057
668 1 0.599623 0.300265 0.286051
669 2 0.749717 0.349663 0.30604
676 1 0.799586 0.3003 0.286053
644 1 1.00034 0.300016 0.286065
677 2 0.9501 0.350198 0.305734
682 1 0.100012 0.400213 0.286431
690 1 0.300123 0.400267 0.28611
698 1 0.499828 0.399893 0.286291
706 1 0.699755 0.399928 0.286191
714 1 0.899845 0.399961 0.286063
687 2 0.0497861 0.450419 0.305665
695 2 0.250427 0.449967 0.305888
703 2 0.45024 0.450237 0.306073
711 2 0.649902 0.450427 0.305878
719 2 0.850243 0.450103 0.30605
692 1 0.20031 0.499989 0.286263
685 2 0.150267 0.549751 0.305686
693 2 0.35016 0.549608 0.305678
700 1 0.400336 0.500306 0.285988
701 2 0.549792 0.550142 0.306019
708 1 0.600182 0.500236 0.286345
709 2 0.749835 0.54973 0.305865
716 1 0.800213 0.499674 0.286214
684 1 0.999396 0.499996 0.286192
717 2 0.950072 0.550102 0.306012
722 1 0.0994982 0.599986 0.28629
730 1 0.300038 0.599723 0.286117
738 1 0.499739 0.60029 0.285943
746 1 0.700157 0.600446 0.286299
754 1 0.900056 0.599618 0.28625
727 2 0.0495373 0.650465 0.305737
732 1 0.200011 0.699976 0.286261
735 2 0.25008 0.650076 0.305675
740 1 0.400241 0.700035 0.286132
743 2 0.450227 0.650265 0.305859
748 1 0.600066 0.700057 0.286319
751 2 0.64963 0.64996 0.306143
756 1 0.799657 0.700257 0.286037
759 2 0.849845 0.649979 0.305642
724 1 0.999564 0.70024 0.28606
725 2 0.150139 0.749915 0.305946
733 2 0.35023 0.749796 0.306035
741 2 0.550146 0.750092 0.306055
749 2 0.749516 0.749849 0.305957
757 2 0.949528 0.750061 0.30592
767 2 0.0498581 0.849521 0.305726
762 1 0.100377 0.799767 0.286322
775 2 0.249764 0.850464 0.305705
770 1 0.300084 0.799997 0.286042
783 2 0.450323 0.849481 0.305776
778 1 0.500388 0.799463 0.285946
786 1 0.699672 0.799699 0.286049
791 2 0.650101 0.850225 0.305883
799 2 0.849437 0.850262 0.305739
794 1 0.899438 0.800049 0.286154
772 1 0.199521 0.900173 0.286187
780 1 0.400006 0.899733 0.286389
788 1 0.599736 0.90039 0.286412
796 1 0.800071 0.90036 0.285901
764 1 0.999858 0.899963 0.286288
602 1 0.09986 0.999813 0.28599
765 2 0.149926 0.949601 0.305811
610 1 0.300023 1.00014 0.285998
773 2 0.34954 0.949681 0.305729
618 1 0.500359 1.00019 0.286053
781 2 0.550257 0.950206 0.305772
626 1 0.699927 0.999853 0.286146
789 2 0.749914 0.94969 0.305726
634 1 0.899645 1.00039 0.286412
797 2 0.950136 0.950278 0.305975
808 2 0.149925 0.0498667 0.34522
809 1 0.199571 -0.000394131 0.32531
816 2 0.349818 0.0500268 0.345082
817 1 0.399616 -0.000130735 0.325582
824 2 0.549893 0.0497583 0.345097
825 1 0.600028 -9.83027e-05 0.325591
832 2 0.749574 0.0496905 0.34508
840 2 0.95001 0.0500129 0.345025
803 1 0.10007 0.100178 0.325506
811 1 0.300305 0.099594 0.325258
819 1 0.49959 0.0997824 0.325465
827 1 0.70022 0.100206 0.325444
835 1 0.899914 0.100063 0.325451
806 2 0.0499443 0.149989 0.345315
841 1 1.60671e-05 0.199954 0.32566
849 1 0.199444 0.199702 0.325703
814 2 0.249708 0.149442 0.344949
857 1 0.399924 0.200179 0.325417
822 2 0.449696 0.14971 0.345372
865 1 0.59986 0.200069 0.325401
830 2 0.649668 0.149883 0.34506
838 2 0.849593 0.150035 0.344986
873 1 0.800134 0.199911 0.325262
848 2 0.14998 0.25051 0.345285
856 2 0.349716 0.25005 0.345263
864 2 0.549952 0.249724 0.345048
872 2 0.750017 0.249753 0.344953
880 2 0.95035 0.250039 0.345207
846 2 0.0503326 0.350449 0.345037
843 1 0.0998056 0.300345 0.325385
854 2 0.249978 0.350393 0.345141
851 1 0.300089 0.299883 0.325742
862 2 0.449586 0.349526 0.345387
859 1 0.500355 0.299658 0.325619
867 1 0.699605 0.299712 0.325561
870 2 0.649862 0.349608 0.345164
878 2 0.849946 0.350143 0.34532
875 1 0.899875 0.30032 0.325696
881 1 0.000344309 0.400175 0.32539
889 1 0.199694 0.400392 0.325312
897 1 0.399673 0.399798 0.325341
905 1 0.600253 0.400441 0.325401
913 1 0.800332 0.399703 0.325493
888 2 0.150162 0.450374 0.345338
896 2 0.349783 0.449923 0.345349
904 2 0.54978 0.450156 0.345249
912 2 0.750445 0.449792 0.345365
920 2 0.949851 0.450274 0.34517
886 2 0.0499235 0.550125 0.34511
883 1 0.0998481 0.499649 0.325672
894 2 0.250259 0.549995 0.34501
891 1 0.299896 0.50024 0.325652
902 2 0.450367 0.549622 0.345314
899 1 0.500378 0.499932 0.32573
907 1 0.7001 0.499757 0.325716
910 2 0.650059 0.550305 0.345014
918 2 0.85019 0.549899 0.345275
915 1 0.899709 0.500046 0.325379
921 1 0.000233925 0.600096 0.3257
929 1 0.200373 0.599948 0.325423
937 1 0.400196 0.599473 0.325528
945 1 0.599666 0.599932 0.325805
953 1 0.800233 0.599659 0.325415
923 1 0.0995645 0.700186 0.325274
928 2 0.149929 0.650263 0.34494
931 1 0.29997 0.700138 0.325714
936 2 0.350033 0.64954 0.345115
939 1 0.499877 0.700158 0.32539
944 2 0.54997 0.650344 0.345453
947 1 0.699949 0.699767 0.325774
952 2 0.749892 0.649914 0.345071
955 1 0.899644 0.699763 0.32566
960 2 0.949987 0.649653 0.345081
926 2 0.0500215 0.750026 0.345085
934 2 0.250266 0.750305 0.34527
942 2 0.450345 0.750359 0.345039
950 2 0.649724 0.750314 0.345098
958 2 0.849572 0.750169 0.34532
968 2 0.150039 0.850334 0.345183
969 1 0.199863 0.800431 0.325604
976 2 0.349948 0.850124 0.345432
977 1 0.399756 0.80011 0.325734
984 2 0.549857 0.850236 0.345313
985 1 0.600092 0.800039 0.325486
992 2 0.749925 0.850126 0.345259
993 1 0.799647 0.799812 0.325575
961 1 0.999857 0.799912 0.325639
1000 2 0.949838 0.85035 0.345282
963 1 0.099565 0.899694 0.325685
971 1 0.300124 0.899822 0.325695
979 1 0.500254 0.89983 0.325483
987 1 0.699954 0.899776 0.325514
995 1 0.899847 0.899782 0.325297
966 2 0.0501912 0.95031 0.345242
974 2 0.250142 0.950236 0.345185
982 2 0.450141 0.950287 0.345409
990 2 0.65036 0.950442 0.344971
833 1 0.800184 1.00016 0.325399
998 2 0.850296 0.949898 0.345338
801 1 0.999746 1.00005 0.325352
807 2 0.0499213 0.049516 0.384608
802 1 0.10017 0.000322596 0.365066
815 2 0.250253 0.0497531 0.384584
810 1 0.300171 -0.000341271 0.364853
823 2 0.449678 0.0499171 0.384679
818 1 0.500129 0.000272818 0.365148
826 1 0.69998 0.000171998 0.364863
831 2 0.649809 0.0502648 0.384799
839 2 0.849826 0.0502456 0.384466
834 1 0.899804 0.000227117 0.364947
804 1 0.000132205 0.0996106 0.364981
812 1 0.199711 0.100017 0.364891
820 1 0.399992 0.099756 0.36503
828 1 0.600114 0.0998972 0.364906
836 1 0.799386 0.10002 0.364611
842 1 0.100292 0.20023 0.36491
805 2 0.150078 0.149758 0.384702
850 1 0.299543 0.199835 0.36469
813 2 0.349868 0.150189 0.384577
858 1 0.500223 0.200362 0.365054
821 2 0.549904 0.149779 0.384398
866 1 0.699662 0.200243 0.364717
829 2 0.749469 0.149873 0.384593
874 1 0.900297 0.199674 0.364772
837 2 0.949989 0.15018 0.384688
847 2 0.0497328 0.250017 0.384741
855 2 0.250346 0.249981 0.384798
863 2 0.45015 0.250315 0.384739
871 2 0.650301 0.249921 0.384654
879 2 0.84985 0.249989 0.384388
844 1 -9.65946e-05 0.29985 0.36486
852 1 0.200223 0.30003 0.36488
845 2 0.150099 0.349693 0.38461
853 2 0.350066 0.349896 0.384466
860 1 0.399657 0.299644 0.36504
861 2 0.550531 0.350507 0.384619
868 1 0.599797 0.300019 0.364997
869 2 0.749807 0.350025 0.384418
876 1 0.800232 0.299849 0.364742
877 2 0.949755 0.349899 0.384614
882 1 0.100046 0.400201 0.365158
890 1 0.300048 0.399962 0.365005
898 1 0.499944 0.399847 0.36505
906 1 0.699507 0.400104 0.364776
914 1 0.899777 0.399666 0.3649
887 2 0.0495839 0.449762 0.384814
892 1 0.20032 0.500286 0.364795
895 2 0.250035 0.449739 0.38454
903 2 0.449616 0.450405 0.384674
908 1 0.600237 0.499788 0.364807
911 2 0.650294 0.450386 0.384828
916 1 0.800459 0.499907 0.364913
919 2 0.850359 0.44966 0.384374
884 1 0.000138421 0.499672 0.365019
885 2 0.15033 0.549879 0.38435
893 2 0.350182 0.549857 0.384902
900 1 0.399589 0.500428 0.365082
901 2 0.549767 0.550302 0.384605
909 2 0.749863 0.549699 0.384515
917 2 0.950306 0.55024 0.384669
922 1 0.099747 0.600443 0.364908
930 1 0.300122 0.599495 0.364996
938 1 0.499609 0.599716 0.364988
946 1 0.699993 0.60013 0.365057
954 1 0.900246 0.599767 0.364889
924 1 -0.000316412 0.699941 0.36508
927 2 0.0497585 0.650107 0.38477
932 1 0.200225 0.699904 0.364854