ITEM: TIMESTEP
300
ITEM: NUMBER OF ATOMS
1250
ITEM: BOX BOUNDS pp pp pp
0.0000000000000000e+00 3.5000000000000000e+01
0.0000000000000000e+00 3.5000000000000000e+01
-1.4000000000000000e+01 5.6000000000000000e+01
ITEM: ATOMS id type xs ys zs
1 1 0 0 0
8 2 0.15 0.05 0.025
9 1 0.2 0 0
16 2 0.35 0.05 0.025
17 1 0.4 0 0
24 2 0.55 0.05 0.025
25 1 0.6 0 0
32 2 0.75 0.05 0.025
33 1 0.8 0 0
40 2 0.95 0.05 0.025
6 2 0.05 0.15 0.025
3 1 0.1 0.1 0
11 1 0.3 0.1 0
14 2 0.25 0.15 0.025
22 2 0.45 0.15 0.025
19 1 0.5 0.1 0
30 2 0.65 0.15 0.025
27 1 0.7 0.1 0
35 1 0.9 0.1 0
38 2 0.85 0.15 0.025
41 1 0 0.2 0
49 1 0.2 0.2 0
57 1 0.4 0.2 0
65 1 0.6 0.2 0
73 1 0.8 0.2 0
43 1 0.1 0.3 0
48 2 0.15 0.25 0.025
51 1 0.3 0.3 0
56 2 0.35 0.25 0.025
59 1 0.5 0.3 0
64 2 0.55 0.25 0.025
67 1 0.7 0.3 0
72 2 0.75 0.25 0.025
75 1 0.9 0.3 0
80 2 0.95 0.25 0.025
46 2 0.05 0.35 0.025
54 2 0.25 0.35 0.025
62 2 0.45 0.35 0.025
70 2 0.65 0.35 0.025
78 2 0.85 0.35 0.025
81 1 0 0.4 0
88 2 0.15 0.45 0.025
89 1 0.2 0.4 0
96 2 0.35 0.45 0.025
97 1 0.4 0.4 0
104 2 0.55 0.45 0.025
105 1 0.6 0.4 0
112 2 0.75 0.45 0.025
113 1 0.8 0.4 0
120 2 0.95 0.45 0.025
83 1 0.1 0.5 0
91 1 0.3 0.5 0
99 1 0.5 0.5 0
107 1 0.7 0.5 0
115 1 0.9 0.5 0
86 2 0.05 0.55 0.025
121 1 0 0.6 0
129 1 0.2 0.6 0
94 2 0.25 0.55 0.025
102 2 0.45 0.55 0.025
137 1 0.4 0.6 0
145 1 0.6 0.6 0
110 2 0.65 0.55 0.025
153 1 0.8 0.6 0
118 2 0.85 0.55 0.025
128 2 0.15 0.65 0.025
136 2 0.35 0.65 0.025
144 2 0.55 0.65 0.025
152 2 0.75 0.65 0.025
160 2 0.95 0.65 0.025
126 2 0.05 0.75 0.025
123 1 0.1 0.7 0
131 1 0.3 0.7 0
134 2 0.25 0.75 0.025
142 2 0.45 0.75 0.025
139 1 0.5 0.7 0
150 2 0.65 0.75 0.025
147 1 0.7 0.7 0
155 1 0.9 0.7 0
158 2 0.85 0.75 0.025
161 1 0 0.8 0
169 1 0.2 0.8 0
177 1 0.4 0.8 0
185 1 0.6 0.8 0
193 1 0.8 0.8 0
163 1 0.1 0.9 0
168 2 0.15 0.85 0.025
171 1 0.3 0.9 0
176 2 0.35 0.85 0.025
179 1 0.5 0.9 0
184 2 0.55 0.85 0.025
187 1 0.7 0.9 0
192 2 0.75 0.85 0.025
195 1 0.9 0.9 0
200 2 0.95 0.85 0.025
166 2 0.05 0.95 0.025
174 2 0.25 0.95 0.025
182 2 0.45 0.95 0.025
190 2 0.65 0.95 0.025
198 2 0.85 0.95 0.025
7 2 0.0500412 0.0502503 0.0735813
2 1 0.1 0 0.05
10 1 0.3 0 0.05
15 2 0.249838 0.0500079 0.0736851
23 2 0.450152 0.0500928 0.073701
18 1 0.5 0 0.05
31 2 0.650093 0.0499931 0.0735887
26 1 0.7 0 0.05
34 1 0.9 0 0.05
39 2 0.850209 0.0500692 0.0735974
4 1 0 0.1 0.05
5 2 0.149839 0.150073 0.0734677
12 1 0.2 0.1 0.05
13 2 0.349905 0.150131 0.0737087
20 1 0.4 0.1 0.05
21 2 0.550113 0.150183 0.0734673
28 1 0.6 0.1 0.05
29 2 0.750253 0.149855 0.0734902
36 1 0.8 0.1 0.05
37 2 0.950125 0.149772 0.0736981
42 1 0.1 0.2 0.05
50 1 0.3 0.2 0.05
58 1 0.5 0.2 0.05
66 1 0.7 0.2 0.05
74 1 0.9 0.2 0.05
44 1 0 0.3 0.05
47 2 0.0497749 0.250185 0.0734204
52 1 0.2 0.3 0.05
55 2 0.249906 0.250191 0.0736985
60 1 0.4 0.3 0.05
63 2 0.449927 0.249847 0.0736173
68 1 0.6 0.3 0.05
71 2 0.650257 0.249731 0.0735565
76 1 0.8 0.3 0.05
79 2 0.849832 0.250247 0.0735266
45 2 0.149688 0.350211 0.0734996
53 2 0.349878 0.349983 0.0734823
61 2 0.550273 0.349976 0.0735776
69 2 0.75009 0.349732 0.0735566
77 2 0.949979 0.350152 0.073656
87 2 0.0497804 0.449791 0.0735414
82 1 0.1 0.4 0.05
90 1 0.3 0.4 0.05
95 2 0.250185 0.450105 0.073644
103 2 0.449912 0.450033 0.0734563
98 1 0.5 0.4 0.05
111 2 0.650092 0.44969 0.0735928
106 1 0.7 0.4 0.05
114 1 0.9 0.4 0.05
119 2 0.850048 0.449657 0.0734869
84 1 0 0.5 0.05
92 1 0.2 0.5 0.05
100 1 0.4 0.5 0.05
108 1 0.6 0.5 0.05
116 1 0.8 0.5 0.05
85 2 0.149727 0.549927 0.0735544
122 1 0.1 0.6 0.05
130 1 0.3 0.6 0.05
93 2 0.349936 0.550203 0.0736403
138 1 0.5 0.6 0.05
101 2 0.550113 0.550301 0.0736982
109 2 0.750236 0.549769 0.0736691
146 1 0.7 0.6 0.05
154 1 0.9 0.6 0.05
117 2 0.950018 0.550265 0.0735215
127 2 0.0502904 0.650215 0.0734508
135 2 0.249822 0.649893 0.0736379
143 2 0.450052 0.650257 0.0734937
151 2 0.649802 0.650051 0.0734648
159 2 0.850051 0.65015 0.0736697
124 1 0 0.7 0.05
125 2 0.150352 0.750074 0.0737051
132 1 0.2 0.7 0.05
133 2 0.350052 0.749831 0.0735041
140 1 0.4 0.7 0.05
141 2 0.549813 0.750187 0.0736975
148 1 0.6 0.7 0.05
149 2 0.749923 0.750042 0.0735542
156 1 0.8 0.7 0.05
157 2 0.950025 0.750203 0.0735739
162 1 0.1 0.8 0.05
170 1 0.3 0.8 0.05
178 1 0.5 0.8 0.05
186 1 0.7 0.8 0.05
194 1 0.9 0.8 0.05
164 1 0 0.9 0.05
167 2 0.0499738 0.850272 0.0734565
172 1 0.2 0.9 0.05
175 2 0.250243 0.850014 0.0736619
180 1 0.4 0.9 0.05
183 2 0.450186 0.850256 0.0735314
188 1 0.6 0.9 0.05
191 2 0.650167 0.849707 0.0736939
196 1 0.8 0.9 0.05
199 2 0.85022 0.84995 0.073668
165 2 0.149682 0.949855 0.0736998
173 2 0.349972 0.949941 0.0736731
181 2 0.5497 0.949858 0.0735432
189 2 0.750232 0.95006 0.0734716
197 2 0.949778 0.949869 0.0735212
225 1 0.599651 -0.000188282 0.0971422
203 1 0.100228 0.100099 0.0970295
211 1 0.300004 0.100132 0.0971896
219 1 0.500222 0.100331 0.0970165
227 1 0.70012 0.10019 0.0970335
235 1 0.900128 0.100044 0.0970721
249 1 0.200228 0.199751 0.0971364
257 1 0.400102 0.200032 0.0972869
265 1 0.599905 0.200222 0.0972068
273 1 0.799844 0.200179 0.0970491
241 1 1.00005 0.200159 0.0971573
243 1 0.0998457 0.299709 0.097213
251 1 0.299841 0.299927 0.097035
259 1 0.50001 0.299776 0.0971062
267 1 0.700252 0.299886 0.0971993
275 1 0.900121 0.300164 0.0972344
281 1 -2.16953e-06 0.399728 0.0971215
289 1 0.200011 0.399963 0.0971921
297 1 0.400117 0.400043 0.0970346
305 1 0.600116 0.399683 0.0973395
313 1 0.800081 0.399954 0.0972672
283 1 0.100019 0.500131 0.0970354
291 1 0.299738 0.500003 0.0972261
299 1 0.500235 0.500231 0.097284
307 1 0.700136 0.500155 0.0971336
315 1 0.899847 0.499727 0.0971878
321 1 -0.000102269 0.600366 0.0971981
329 1 0.199735 0.599838 0.0972027
337 1 0.400216 0.600221 0.0973321
345 1 0.600329 0.599752 0.0971688
353 1 0.799719 0.599962 0.0971073
323 1 0.100044 0.700027 0.0970545
331 1 0.300129 0.699927 0.0970265
339 1 0.499743 0.70032 0.0973136
347 1 0.70022 0.699857 0.0972917
355 1 0.899938 0.70006 0.0972083
369 1 0.20038 0.800293 0.0971587
377 1 0.399799 0.800205 0.0971862
385 1 0.59993 0.800104 0.0973238
393 1 0.799786 0.799989 0.0972472
361 1 1.00016 0.800108 0.0971623
363 1 0.0998396 0.8997 0.0970998
371 1 0.300025 0.899997 0.0973485
379 1 0.499985 0.899744 0.0972458
387 1 0.700243 0.90005 0.0971017
395 1 0.899852 0.899771 0.0971959
201 1 5.97523e-05 1.00017 0.0972221
209 1 0.199954 0.999775 0.0971569
217 1 0.399749 1.0003 0.0972202
233 1 0.800257 0.999918 0.0970232
202 1 0.100092 8.23073e-05 0.144468
208 2 0.149763 0.0501958 0.120655
216 2 0.349952 0.0502504 0.120696
218 1 0.499858 -1.17285e-05 0.144335
224 2 0.549718 0.0502171 0.12092
232 2 0.750074 0.050139 0.12076
240 2 0.95002 0.050209 0.120681
204 1 -0.000205224 0.100036 0.144356
206 2 0.0502139 0.150078 0.120706
212 1 0.19992 0.100158 0.144509
214 2 0.250037 0.150172 0.120806
220 1 0.399953 0.0996859 0.14426
222 2 0.449892 0.14983 0.120646
228 1 0.599828 0.100162 0.144409
230 2 0.65009 0.149937 0.120661
236 1 0.799875 0.0998624 0.144327
238 2 0.849704 0.149868 0.120896
242 1 0.100335 0.199919 0.144406
250 1 0.300151 0.199915 0.14455
258 1 0.499736 0.199986 0.144377
266 1 0.700081 0.199997 0.144216
274 1 0.899669 0.199853 0.144444
248 2 0.149878 0.250164 0.120681
252 1 0.200013 0.30027 0.14432
256 2 0.350065 0.249984 0.12078
260 1 0.400268 0.299708 0.144521
264 2 0.549977 0.250025 0.1208
268 1 0.60002 0.3002 0.144417
272 2 0.750132 0.24976 0.120771
276 1 0.80005 0.300187 0.144405
244 1 0.999998 0.299817 0.14425
280 2 0.949952 0.249713 0.120688
246 2 0.0502776 0.349777 0.1207
254 2 0.249847 0.350095 0.12066
262 2 0.449854 0.350013 0.120897
270 2 0.650215 0.350169 0.120814
278 2 0.849921 0.350249 0.120696
282 1 0.100112 0.399779 0.144477
288 2 0.150175 0.449823 0.120877
290 1 0.299802 0.399666 0.144497
296 2 0.349959 0.449985 0.120941
298 1 0.500078 0.39985 0.144495
304 2 0.550007 0.449925 0.120752
306 1 0.700078 0.399779 0.144339
312 2 0.750168 0.450021 0.120723
314 1 0.899816 0.399931 0.144409
320 2 0.949872 0.450116 0.120856
284 1 -4.36899e-07 0.499867 0.144343
292 1 0.200195 0.499748 0.144331
300 1 0.40018 0.500319 0.144358
308 1 0.600061 0.499904 0.144338
316 1 0.799948 0.500191 0.144294
286 2 0.0499882 0.549875 0.120657
322 1 0.100206 0.600061 0.144499
294 2 0.249749 0.549979 0.120653
330 1 0.30007 0.600242 0.144358
302 2 0.450201 0.550235 0.120868
338 1 0.500245 0.599829 0.144258
310 2 0.649931 0.550033 0.120705
346 1 0.700058 0.600253 0.144322
318 2 0.849861 0.550131 0.120605
354 1 0.899764 0.5996 0.144523
328 2 0.150068 0.650221 0.120752
336 2 0.349895 0.650171 0.120918
344 2 0.549948 0.649735 0.120691
352 2 0.749897 0.649926 0.120762
360 2 0.949656 0.650111 0.120759
326 2 0.0497849 0.749879 0.120653
332 1 0.200246 0.700053 0.144437
334 2 0.250219 0.750179 0.120817
340 1 0.399836 0.699722 0.144436
342 2 0.450113 0.750161 0.120978
348 1 0.599971 0.699746 0.144394
350 2 0.650301 0.749981 0.120929
356 1 0.800246 0.700122 0.144525
358 2 0.850234 0.750077 0.120663
324 1 1.0003 0.699769 0.14432
362 1 0.100113 0.800109 0.144362
370 1 0.299952 0.799897 0.144464
378 1 0.500193 0.800131 0.144538
386 1 0.70037 0.799965 0.144535
394 1 0.899861 0.799707 0.144423
368 2 0.150068 0.849928 0.120667
372 1 0.199689 0.899953 0.144502
376 2 0.349785 0.85014 0.120909
380 1 0.400306 0.900035 0.144409
384 2 0.550325 0.850316 0.120738
388 1 0.600367 0.900003 0.144393
392 2 0.75008 0.850249 0.120937
396 1 0.800179 0.899825 0.144571
364 1 1.00023 0.899984 0.14434
400 2 0.950192 0.849797 0.120918
366 2 0.0500656 0.950256 0.120725
210 1 0.299751 1.0002 0.144372
374 2 0.249706 0.949739 0.120781
382 2 0.450038 0.950293 0.120623
390 2 0.649722 0.949918 0.120688
226 1 0.699897 0.999805 0.144269
234 1 0.900343 0.999705 0.144269
398 2 0.850183 0.950104 0.120747
207 2 0.0500674 0.0499909 0.167907
401 1 -0.00018927 -8.83607e-05 0.191666
409 1 0.199856 2.0564e-05 0.191713
215 2 0.250045 0.0498109 0.167915
223 2 0.45024 0.0497044 0.167935
417 1 0.399821 -0.00016865 0.191721
231 2 0.649903 0.0500978 0.168003
433 1 0.799715 0.000207001 0.191496
239 2 0.850026 0.0497294 0.167794
205 2 0.150205 0.150074 0.168044
403 1 0.100043 0.100099 0.191731
411 1 0.299638 0.0998752 0.191733
213 2 0.350177 0.149858 0.168127
419 1 0.50011 0.0999072 0.191655
221 2 0.549673 0.150148 0.168082
229 2 0.749991 0.149836 0.167884
427 1 0.699676 0.100261 0.191517
435 1 0.899775 0.0997337 0.191605
237 2 0.949719 0.149697 0.168041
449 1 0.199971 0.199948 0.191716
457 1 0.39993 0.20032 0.191764
465 1 0.599649 0.200299 0.191717
473 1 0.799988 0.200092 0.191484
441 1 0.99978 0.199687 0.191524
247 2 0.0502369 0.250041 0.168037
443 1 0.0999092 0.300125 0.191622
255 2 0.249899 0.249799 0.168062
451 1 0.300037 0.299659 0.191634
263 2 0.44985 0.249923 0.167941
459 1 0.499944 0.300015 0.191473
271 2 0.650251 0.249751 0.168011
467 1 0.700017 0.299726 0.191645
279 2 0.849748 0.250068 0.167874
475 1 0.899939 0.299758 0.191628
245 2 0.149839 0.350198 0.167892
253 2 0.350287 0.349767 0.168129
261 2 0.550047 0.349879 0.167943
269 2 0.750068 0.350012 0.16786
277 2 0.950058 0.349958 0.167944
287 2 0.050067 0.450009 0.167993
489 1 0.199624 0.399844 0.191723
295 2 0.249711 0.450223 0.168147
303 2 0.450153 0.450066 0.167964
497 1 0.399935 0.400297 0.191741
505 1 0.600017 0.39999 0.191648
311 2 0.649811 0.449933 0.167889
513 1 0.799982 0.399934 0.191471
319 2 0.849848 0.450038 0.168038
481 1 1.00029 0.399923 0.191505
483 1 0.0997615 0.500226 0.19173
491 1 0.300059 0.500078 0.191582
499 1 0.500289 0.499822 0.191698
507 1 0.699707 0.500104 0.191477
515 1 0.899766 0.499812 0.191664
285 2 0.149798 0.549903 0.168139
529 1 0.199983 0.599883 0.191738
293 2 0.350273 0.550273 0.167907
537 1 0.399825 0.599997 0.191489
301 2 0.549976 0.549952 0.16805
545 1 0.600091 0.599816 0.191454
309 2 0.749922 0.549849 0.16812
553 1 0.799929 0.600091 0.19159
317 2 0.950292 0.549702 0.168074
521 1 1.00032 0.599743 0.191545
327 2 0.0500128 0.650011 0.167863
335 2 0.250135 0.649706 0.168141
343 2 0.450225 0.649816 0.167842
351 2 0.649757 0.650156 0.168052
359 2 0.85016 0.649797 0.167999
325 2 0.150143 0.750177 0.167872
523 1 0.100305 0.700247 0.191523
531 1 0.299755 0.699696 0.191719
333 2 0.350078 0.74966 0.167997
539 1 0.500187 0.700295 0.191701
341 2 0.550069 0.749813 0.168061
349 2 0.750241 0.750161 0.168157
547 1 0.699958 0.700233 0.191511
555 1 0.900265 0.700118 0.191492
357 2 0.950232 0.749768 0.167824
569 1 0.199886 0.799841 0.191721
577 1 0.400137 0.800042 0.191588
585 1 0.600149 0.800223 0.191717
593 1 0.800369 0.800207 0.191709
561 1 1.00028 0.800033 0.191442
367 2 0.0502438 0.849767 0.1679
563 1 0.100292 0.899751 0.191593
375 2 0.249718 0.849754 0.167884
571 1 0.299723 0.899804 0.191517
383 2 0.449879 0.849971 0.167975
579 1 0.500073 0.899775 0.191468
391 2 0.650352 0.850083 0.168099
587 1 0.700067 0.900039 0.191755
399 2 0.85037 0.849774 0.168181
595 1 0.900214 0.900295 0.19175
365 2 0.150052 0.949954 0.167945
373 2 0.349763 0.950114 0.167981
381 2 0.549909 0.949824 0.167868
425 1 0.599823 1.00006 0.191483
389 2 0.74971 0.950141 0.168092
397 2 0.949791 0.949694 0.168024
408 2 0.150023 0.0501916 0.215356
416 2 0.349793 0.050113 0.215296
424 2 0.55025 0.0497377 0.215209
432 2 0.750045 0.0502929 0.215149
440 2 0.949718 0.0496897 0.215333
406 2 0.0499561 0.149862 0.215199
414 2 0.249884 0.15029 0.21527
422 2 0.449785 0.149887 0.215139
430 2 0.649784 0.150346 0.215094
438 2 0.850241 0.150048 0.215324
448 2 0.150072 0.249941 0.215075
456 2 0.349963 0.24996 0.215356
464 2 0.549919 0.250046 0.215259
472 2 0.750159 0.24997 0.215114
480 2 0.950277 0.25021 0.215157
446 2 0.0501671 0.349744 0.215103
454 2 0.249851 0.349919 0.215087
462 2 0.449987 0.350252 0.215242
470 2 0.650158 0.349674 0.215226
478 2 0.849928 0.350189 0.215087
488 2 0.149863 0.450181 0.215281
496 2 0.349828 0.449983 0.215224
504 2 0.549743 0.449618 0.215324
512 2 0.74995 0.44989 0.215268
520 2 0.950155 0.45003 0.215058
486 2 0.050062 0.550046 0.215232
494 2 0.249743 0.55019 0.215209
502 2 0.449783 0.55021 0.215212
510 2 0.64975 0.549766 0.215326
518 2 0.84987 0.550133 0.215339
528 2 0.149944 0.649802 0.215168
536 2 0.350128 0.649921 0.215094
544 2 0.550287 0.650185 0.215142
552 2 0.750206 0.650206 0.215054
560 2 0.950289 0.64971 0.215199
526 2 0.0499084 0.750045 0.215197
534 2 0.249723 0.749814 0.215314
542 2 0.449738 0.75021 0.215346
550 2 0.650255 0.749708 0.215194
558 2 0.850114 0.749827 0.215093
568 2 0.150054 0.850191 0.21525
576 2 0.349939 0.850007 0.215304
584 2 0.550197 0.849917 0.215162
592 2 0.750187 0.849956 0.215088
600 2 0.950031 0.850169 0.215084
566 2 0.0499802 0.949795 0.215219
574 2 0.250296 0.949817 0.215137
582 2 0.450128 0.949721 0.215069
590 2 0.649934 0.949735 0.215174
598 2 0.849867 0.950157 0.215087
407 2 0.049916 0.0502203 0.262449
410 1 0.300119 0.000214934 0.23887
415 2 0.249713 0.0498945 0.262522
423 2 0.45008 0.0501062 0.262493
431 2 0.649883 0.0499664 0.262519
426 1 0.699727 3.84956e-05 0.238671
434 1 0.899694 -0.000301353 0.238731
439 2 0.850178 0.0498799 0.262478
405 2 0.149995 0.149972 0.262337
412 1 0.200194 0.100147 0.238937
413 2 0.350122 0.150085 0.262391
420 1 0.400198 0.100219 0.238821
428 1 0.600093 0.100314 0.238698
421 2 0.549729 0.150053 0.262319
429 2 0.750262 0.149839 0.262477
436 1 0.799959 0.0999834 0.238878
404 1 0.999674 0.100123 0.238704
437 2 0.950047 0.150032 0.262578
442 1 0.0997668 0.200251 0.238908
450 1 0.300142 0.200119 0.23881
458 1 0.499774 0.200078 0.238815
466 1 0.700032 0.199681 0.238778
474 1 0.900081 0.199895 0.23896
444 1 -2.94179e-05 0.30015 0.238747
447 2 0.0499886 0.249892 0.262465
452 1 0.20009 0.300182 0.238935
455 2 0.250294 0.249915 0.262309
460 1 0.400324 0.299897 0.238726
463 2 0.449895 0.249735 0.262464
468 1 0.59972 0.300067 0.238874
471 2 0.649757 0.249785 0.262325
476 1 0.800012 0.299811 0.238835
479 2 0.850075 0.25015 0.262327
445 2 0.149947 0.350217 0.262287
453 2 0.349987 0.350133 0.262444
461 2 0.54993 0.350212 0.262311
469 2 0.75002 0.350266 0.262354
477 2 0.949928 0.34977 0.262458
487 2 0.0499085 0.449832 0.262557
482 1 0.100105 0.399905 0.238668
490 1 0.300027 0.400138 0.238736
495 2 0.24968 0.449837 0.262239
503 2 0.450166 0.45017 0.262268
498 1 0.499863 0.400223 0.238941
511 2 0.650208 0.450288 0.262491
506 1 0.699686 0.399809 0.238794
514 1 0.899898 0.400137 0.238789
519 2 0.850267 0.449993 0.262531
492 1 0.199849 0.49983 0.238684
500 1 0.399869 0.499974 0.238787
508 1 0.599928 0.499608 0.238677
516 1 0.800358 0.499677 0.238722
484 1 1.00002 0.499856 0.238892
522 1 0.100124 0.600035 0.238932
485 2 0.149859 0.550096 0.26252
530 1 0.299905 0.599982 0.238811
493 2 0.350068 0.550092 0.26245
538 1 0.499923 0.599784 0.238868
501 2 0.550104 0.54972 0.262518
546 1 0.70025 0.600003 0.238714
509 2 0.750233 0.549842 0.262324
554 1 0.900159 0.600249 0.238835
517 2 0.949912 0.550229 0.26251
527 2 0.0502125 0.6498 0.262525
535 2 0.24974 0.650127 0.262523
543 2 0.450341 0.65013 0.262425
551 2 0.650289 0.649859 0.262406
559 2 0.849882 0.650029 0.26227
524 1 6.44981e-05 0.700034 0.238876
525 2 0.149789 0.749897 0.262566
532 1 0.199649 0.699711 0.238807
533 2 0.350123 0.750339 0.262272
540 1 0.399962 0.69997 0.238826
548 1 0.599954 0.699838 0.238876
541 2 0.549873 0.750056 0.262503
549 2 0.749867 0.749937 0.262434
556 1 0.799692 0.700303 0.238836
557 2 0.949744 0.750295 0.262459
562 1 0.100057 0.799877 0.238888
570 1 0.299822 0.799757 0.238795
578 1 0.500181 0.799853 0.238651
586 1 0.700144 0.800003 0.23876
594 1 0.900106 0.799843 0.238716
564 1 0.000115647 0.899954 0.238797
567 2 0.0501355 0.850259 0.26248
572 1 0.199955 0.899767 0.238811
575 2 0.249953 0.849842 0.262337
580 1 0.400345 0.900115 0.238713
583 2 0.450387 0.849823 0.262231
588 1 0.600066 0.900089 0.238833
591 2 0.649966 0.849902 0.262398
596 1 0.800289 0.89991 0.238629
599 2 0.849848 0.850119 0.262315
402 1 0.0998025 0.999751 0.238737
565 2 0.150243 0.950017 0.262495
573 2 0.350163 0.950057 0.262429
418 1 0.500243 0.999709 0.238833
581 2 0.550053 0.949864 0.262548
589 2 0.749803 0.949727 0.262307
597 2 0.950235 0.950287 0.26245
617 1 0.400035 -0.000320501 0.285882
625 1 0.599955 0.000168305 0.285967
633 1 0.799835 -0.000315032 0.286069
603 1 0.100242 0.100259 0.286023
611 1 0.299716 0.100034 0.286116
619 1 0.499721 0.0997274 0.285907
627 1 0.699741 0.0996984 0.286097
635 1 0.900295 0.100127 0.286121
641 1 -8.39115e-05 0.200015 0.286156
649 1 0.200047 0.200163 0.285913
657 1 0.400315 0.200165 0.285929
665 1 0.599799 0.200285 0.285896
673 1 0.80034 0.200204 0.286115
643 1 0.10033 0.300013 0.285934
651 1 0.299909 0.299932 0.285998
659 1 0.49994 0.299892 0.285892
667 1 0.700146 0.299913 0.286023
675 1 0.900038 0.299674 0.286094
689 1 0.199959 0.399754 0.285858
697 1 0.400097 0.400063 0.2859
705 1 0.600278 0.399878 0.286115
713 1 0.800121 0.400314 0.285964
681 1 1.00012 0.400021 0.286167
683 1 0.0999914 0.499751 0.286116
691 1 0.299845 0.499893 0.28595
699 1 0.499908 0.499866 0.286109
707 1 0.700164 0.500021 0.286008
715 1 0.900216 0.500017 0.28598
721 1 0.000273257 0.59998 0.28594
729 1 0.199796 0.60017 0.285978
737 1 0.400056 0.599991 0.285847
745 1 0.600023 0.60027 0.286062
753 1 0.800195 0.600152 0.286031
723 1 0.0998918 0.699976 0.286108
731 1 0.300296 0.70001 0.285926
739 1 0.500021 0.700336 0.286072
747 1 0.699756 0.700138 0.285871
755 1 0.899979 0.69969 0.286035
761 1 0.000175962 0.800347 0.286157
769 1 0.199931 0.799782 0.286002
777 1 0.400236 0.800259 0.285982
785 1 0.599942 0.800103 0.286029
793 1 0.800058 0.799991 0.285935
763 1 0.100198 0.90027 0.286128
771 1 0.300097 0.900267 0.285925
779 1 0.500317 0.899882 0.285952
787 1 0.699979 0.899689 0.286093
795 1 0.899727 0.899765 0.285883
609 1 0.199733 1 0.28618
601 1 0.99997 1.00023 0.286116
608 2 0.149768 0.0502997 0.309748
616 2 0.35005 0.0499997 0.309435
618 1 0.500273 0.000159192 0.333144
624 2 0.549828 0.0498185 0.309696
632 2 0.750036 0.0498764 0.309594
626 1 0.69998 -9.43143e-05 0.333218
640 2 0.950152 0.0498256 0.309759
606 2 0.0498588 0.149787 0.309695
612 1 0.200068 0.0998052 0.333305
614 2 0.250195 0.150214 0.309538
622 2 0.450179 0.150123 0.309727
620 1 0.399851 0.100095 0.333198
628 1 0.600085 0.0997142 0.333336
630 2 0.649657 0.149935 0.309472
636 1 0.800137 0.0998861 0.333159
638 2 0.849998 0.14985 0.309671
604 1 0.9999 0.0999742 0.333112
642 1 0.0997807 0.199864 0.333247
650 1 0.299725 0.200009 0.333326
658 1 0.49995 0.20012 0.333108
666 1 0.700052 0.20009 0.333264
674 1 0.900299 0.200037 0.333064
644 1 0.000248513 0.300002 0.333158
648 2 0.14976 0.249822 0.309773
652 1 0.200201 0.300062 0.333069
656 2 0.350076 0.249788 0.309663
660 1 0.399773 0.300092 0.333189
664 2 0.549728 0.250083 0.309742
668 1 0.599714 0.300203 0.333153
672 2 0.749969 0.249777 0.309687
676 1 0.799702 0.300225 0.333158
680 2 0.950251 0.250187 0.309644
646 2 0.0500603 0.349971 0.309728
654 2 0.249818 0.349865 0.309451
662 2 0.449804 0.349875 0.30973
670 2 0.650107 0.349709 0.309569
678 2 0.850036 0.349979 0.309514
688 2 0.149831 0.44999 0.309724
682 1 0.100021 0.400163 0.333397
690 1 0.300098 0.400209 0.333212
696 2 0.350279 0.450005 0.309493
698 1 0.499895 0.399913 0.333315
704 2 0.550161 0.449725 0.309616
712 2 0.749769 0.449854 0.309559
706 1 0.699848 0.399966 0.333239
714 1 0.899899 0.399951 0.333165
720 2 0.949936 0.449894 0.309508
684 1 -0.000376248 0.500006 0.333248
692 1 0.200174 0.50003 0.333302
700 1 0.400186 0.50023 0.333121
708 1 0.600164 0.500145 0.333353
716 1 0.800168 0.499793 0.333265
686 2 0.0497138 0.549792 0.309742
722 1 0.0996663 0.600004 0.333305
694 2 0.250164 0.549987 0.309561
730 1 0.29998 0.599783 0.333204
702 2 0.450172 0.550206 0.309478
738 1 0.499799 0.600198 0.33308
710 2 0.650082 0.550021 0.309611
746 1 0.700132 0.600308 0.333312
718 2 0.850057 0.549867 0.309544
754 1 0.900021 0.599719 0.333292
728 2 0.149866 0.649944 0.309704
736 2 0.350177 0.650141 0.309509
744 2 0.5498 0.650144 0.309554
752 2 0.749925 0.650212 0.309583
760 2 0.950069 0.650086 0.309552
726 2 0.0499126 0.75021 0.309572
732 1 0.200045 0.700005 0.333289
734 2 0.249793 0.749828 0.309738
742 2 0.449843 0.749802 0.309663
740 1 0.400182 0.700044 0.333202
748 1 0.600095 0.700059 0.333323
750 2 0.649695 0.749843 0.309644
756 1 0.799777 0.700165 0.33314
758 2 0.849919 0.749938 0.309564
724 1 0.999715 0.70012 0.333166
762 1 0.100245 0.799828 0.333342
770 1 0.30006 0.800003 0.333141
778 1 0.500259 0.799639 0.333089
786 1 0.699791 0.799799 0.333153
794 1 0.899632 0.800018 0.333222
764 1 -9.61998e-05 0.899965 0.333308
768 2 0.150079 0.850144 0.309525
772 1 0.199665 0.900137 0.33325
776 2 0.350117 0.850145 0.309668
780 1 0.399957 0.8998 0.333373
784 2 0.550239 0.850163 0.309777
788 1 0.599789 0.900297 0.333382
792 2 0.750075 0.849831 0.309664
796 1 0.800078 0.900272 0.333061
800 2 0.949711 0.85021 0.309633
766 2 0.0501581 0.95 0.309744
602 1 0.0998558 0.999874 0.333106
774 2 0.249839 0.949937 0.309769
610 1 0.300023 1.00009 0.333123
782 2 0.450309 0.949969 0.309631
790 2 0.64967 0.949786 0.309658
798 2 0.850103 0.949848 0.309651
634 1 0.899764 1.00027 0.333382
607 2 0.0501731 0.0498724 0.356783
615 2 0.249984 0.0498738 0.35689
623 2 0.449796 0.0498458 0.356782
631 2 0.650155 0.0502506 0.356939
639 2 0.849873 0.0503568 0.356955
801 1 0.999769 1.40029e-05 0.380314
605 2 0.149709 0.149802 0.356701
803 1 0.100069 0.100152 0.380415
811 1 0.300242 0.0997107 0.38026
613 2 0.349837 0.150036 0.356814
819 1 0.499734 0.0998606 0.380392
621 2 0.54969 0.150051 0.356774
629 2 0.749961 0.149799 0.356875
827 1 0.70017 0.100146 0.380369
835 1 0.899943 0.100011 0.380379
637 2 0.949764 0.150223 0.356833
841 1 4.49873e-06 0.199976 0.380524
849 1 0.199647 0.199785 0.380557
857 1 0.399958 0.200133 0.380357
865 1 0.599924 0.200068 0.380359
873 1 0.800109 0.199936 0.380272
647 2 0.0499276 0.249859 0.356732
843 1 0.0998596 0.300265 0.380349
655 2 0.24993 0.250025 0.356852
851 1 0.300093 0.299889 0.380577
663 2 0.45018 0.249763 0.356681
859 1 0.500262 0.299729 0.380507
671 2 0.649971 0.250076 0.356917
867 1 0.699714 0.299811 0.380449
679 2 0.850061 0.249933 0.356684
875 1 0.899897 0.300233 0.380547
645 2 0.150103 0.349869 0.356751
653 2 0.349761 0.350132 0.356845
661 2 0.55017 0.350316 0.356723
669 2 0.749835 0.349756 0.356951
677 2 0.950055 0.350142 0.356759
687 2 0.0498664 0.450274 0.356716
889 1 0.199782 0.400264 0.380293
695 2 0.25029 0.449953 0.356856
703 2 0.450174 0.450151 0.356976
897 1 0.399762 0.399844 0.380302
905 1 0.600185 0.400302 0.380342
711 2 0.649895 0.450291 0.356852
913 1 0.80024 0.399796 0.380413
719 2 0.850171 0.450112 0.356968
881 1 1.00026 0.400078 0.380346
883 1 0.0998826 0.499718 0.380535
891 1 0.299883 0.500196 0.380519
899 1 0.50027 0.499935 0.380564
907 1 0.700054 0.49984 0.380548
915 1 0.899766 0.499997 0.380331
685 2 0.150216 0.549827 0.356719
929 1 0.200266 0.599958 0.380371
693 2 0.350115 0.54974 0.35672
937 1 0.400092 0.599649 0.380441
701 2 0.549876 0.550074 0.356949
945 1 0.599802 0.599922 0.380609
709 2 0.749876 0.549832 0.356846
953 1 0.800173 0.599768 0.380358
717 2 0.950047 0.550071 0.356927
921 1 1.00017 0.600054 0.380558
727 2 0.0497209 0.650317 0.356763
735 2 0.250025 0.650046 0.356718
743 2 0.450187 0.650207 0.356836
751 2 0.649753 0.649978 0.357015
759 2 0.84991 0.649987 0.356706
725 2 0.150076 0.749945 0.356888
923 1 0.0996951 0.700121 0.380272
931 1 0.299974 0.700129 0.380555
733 2 0.350159 0.749856 0.356957
939 1 0.499876 0.700097 0.380337
741 2 0.55009 0.750081 0.356967
749 2 0.749691 0.749906 0.356902
947 1 0.700023 0.699815 0.38059
955 1 0.899784 0.699829 0.380513
757 2 0.949706 0.75004 0.356875
961 1 -6.05214e-05 0.79993 0.380504
969 1 0.199879 0.800302 0.380484
977 1 0.399823 0.800057 0.380565
985 1 0.600091 0.799956 0.380403
993 1 0.799789 0.799842 0.380469
767 2 0.0499085 0.849683 0.356751
963 1 0.0997077 0.899788 0.380546
775 2 0.249833 0.850312 0.356743
971 1 0.300117 0.899878 0.380538
783 2 0.450207 0.849681 0.356785
979 1 0.500197 0.89983 0.38041
791 2 0.650092 0.850161 0.356863
987 1 0.69995 0.899823 0.380422
799 2 0.84966 0.850198 0.356762
995 1 0.89989 0.899815 0.380287
765 2 0.150035 0.94974 0.356807
809 1 0.199693 0.999722 0.380287
773 2 0.349687 0.949773 0.356755
817 1 0.399756 0.999941 0.380475
781 2 0.550208 0.950121 0.356774
825 1 0.599998 0.999898 0.380483
789 2 0.749929 0.949786 0.35675
833 1 0.800141 1.00015 0.380346
797 2 0.950142 0.950206 0.356921
808 2 0.149946 0.0499032 0.40405
816 2 0.349869 0.050032 0.403944
824 2 0.549922 0.0498141 0.403961
832 2 0.74971 0.0497838 0.403963
840 2 0.950024 0.0500082 0.403916
806 2 0.0499472 0.149994 0.404097
814 2 0.249788 0.149656 0.403874
822 2 0.449778 0.149761 0.404136
830 2 0.649766 0.14991 0.403945
838 2 0.849711 0.150034 0.403889
848 2 0.150002 0.250325 0.40409
856 2 0.349796 0.250067 0.404067
864 2 0.549924 0.249805 0.403921
872 2 0.750001 0.249829 0.403873
880 2 0.950271 0.25003 0.404037
846 2 0.0502457 0.350314 0.403912
854 2 0.249997 0.350253 0.403996
862 2 0.449718 0.34969 0.404153
870 2 0.649937 0.349715 0.40401
878 2 0.84997 0.35011 0.404105
888 2 0.150114 0.450269 0.40411
896 2 0.349849 0.44993 0.404126
904 2 0.549828 0.450146 0.404054
912 2 0.750288 0.449879 0.404137
920 2 0.949916 0.450221 0.404012
886 2 0.049937 0.550109 0.40396
894 2 0.25018 0.54998 0.403902
902 2 0.450271 0.549772 0.404101
910 2 0.650025 0.550219 0.403901
918 2 0.850115 0.549935 0.404078
928 2 0.149958 0.650173 0.403869
936 2 0.350012 0.649689 0.403968
944 2 0.550005 0.650221 0.404182
952 2 0.749897 0.649987 0.403945
960 2 0.949994 0.649754 0.403948
926 2 0.0500617 0.750057 0.40395
934 2 0.250199 0.750172 0.404071
942 2 0.450253 0.750253 0.40392
950 2 0.649785 0.750227 0.403966
958 2 0.849706 0.750121 0.404109
968 2 0.150068 0.850244 0.404006
976 2 0.349968 0.850099 0.404181
984 2 0.549873 0.850197 0.404093
992 2 0.749946 0.850096 0.404069
1000 2 0.949892 0.850246 0.404082
966 2 0.0501491 0.950182 0.404053
974 2 0.250105 0.950163 0.404029
982 2 0.450077 0.950212 0.404167
990 2 0.650225 0.950307 0.403883
998 2 0.850202 0.949924 0.404129
807 2 0.0499606 0.0496777 0.451256
810 1 0.300103 -0.000260848 0.427616
815 2 0.250142 0.0497856 0.451257
823 2 0.449772 0.0499447 0.451296
831 2 0.649854 0.0502029 0.451381
826 1 0.70002 9.83889e-05 0.427608
834 1 0.899831 0.000150693 0.427675
839 2 0.849915 0.0501409 0.451166
804 1 0.00011286 0.0997217 0.427692
805 2 0.150079 0.149821 0.451315
812 1 0.199773 0.100069 0.427632
813 2 0.349904 0.150127 0.451251
820 1 0.400059 0.0998404 0.427726
828 1 0.600116 0.0999574 0.427656
821 2 0.549917 0.149848 0.451116
829 2 0.749667 0.149891 0.451265
836 1 0.799606 0.100019 0.427458
837 2 0.949973 0.15017 0.451316
842 1 0.100218 0.20016 0.427642
850 1 0.2997 0.199912 0.427512
858 1 0.500198 0.200277 0.427749
866 1 0.69976 0.200212 0.427532
874 1 0.90024 0.199751 0.427569
847 2 0.0497863 0.249994 0.451353
852 1 0.200108 0.300014 0.427625
855 2 0.250242 0.249969 0.451383
860 1 0.399774 0.299779 0.42773
863 2 0.450099 0.250215 0.451336
868 1 0.599857 0.300066 0.427707
871 2 0.650225 0.249912 0.451292
876 1 0.80021 0.299886 0.427548
879 2 0.849878 0.25004 0.451126
844 1 0.999887 0.299832 0.42762
845 2 0.150041 0.349761 0.451269
853 2 0.350038 0.349915 0.451171
861 2 0.550353 0.350338 0.451259
869 2 0.749876 0.350029 0.451144
877 2 0.949818 0.349926 0.45126
887 2 0.0496991 0.449836 0.451399
882 1 0.10001 0.400122 0.427806
890 1 0.300033 0.399991 0.42771
895 2 0.250066 0.449831 0.451222
903 2 0.449756 0.450292 0.451301
898 1 0.499997 0.399871 0.427741
911 2 0.650188 0.450252 0.451405
906 1 0.699666 0.400071 0.427564
914 1 0.899798 0.39976 0.427653
919 2 0.850255 0.449769 0.451104
884 1 9.48556e-05 0.499732 0.427722
892 1 0.20016 0.500215 0.427579
900 1 0.399711 0.500311 0.427768
908 1 0.600171 0.499801 0.427578
916 1 0.800304 0.499943 0.427647
922 1 0.0998083 0.600309 0.42765
885 2 0.150239 0.549874 0.451094
930 1 0.300072 0.599669 0.427703
893 2 0.350139 0.549874 0.451436
938 1 0.499728 0.59975 0.427702
901 2 0.549792 0.55022 0.451264
946 1 0.699998 0.600085 0.42775
909 2 0.749849 0.549761 0.451203
954 1 0.900204 0.599801 0.427625
917 2 0.950178 0.550189 0.451295
927 2 0.0498606 0.650075 0.451365
935 2 0.250068 0.650056 0.451155
943 2 0.450064 0.65011 0.451299
951 2 0.650104 0.650203 0.451262