LAMMPS data file via write_data, version 29 Sep 2021, timestep = 65

1250 atoms
2 atom types

0 34.472 xlo xhi
0 34.472 ylo yhi
-13.7888 103.416 zlo zhi

Masses

1 112.411
2 127.6

Atoms # atomic

1 1 0 0 -13.7888 0 0 0
8 2 5.1708 1.7236 -12.0652 0 0 0
9 1 6.8944 0 -13.7888 0 0 0
16 2 12.0652 1.7236 -12.0652 0 0 0
17 1 13.7888 0 -13.7888 0 0 0
24 2 18.959600000000002 1.7236 -12.0652 0 0 0
25 1 20.6832 0 -13.7888 0 0 0
32 2 25.854 1.7236 -12.0652 0 0 0
33 1 27.5776 0 -13.7888 0 0 0
40 2 32.748400000000004 1.7236 -12.0652 0 0 0
6 2 1.7236 5.1708 -12.0652 0 0 0
3 1 3.4472 3.4472 -13.7888 0 0 0
11 1 10.3416 3.4472 -13.7888 0 0 0
14 2 8.618 5.1708 -12.0652 0 0 0
22 2 15.5124 5.1708 -12.0652 0 0 0
19 1 17.236 3.4472 -13.7888 0 0 0
30 2 22.4068 5.1708 -12.0652 0 0 0
27 1 24.1304 3.4472 -13.7888 0 0 0
35 1 31.0248 3.4472 -13.7888 0 0 0
38 2 29.3012 5.1708 -12.0652 0 0 0
41 1 0 6.8944 -13.7888 0 0 0
49 1 6.8944 6.8944 -13.7888 0 0 0
57 1 13.7888 6.8944 -13.7888 0 0 0
65 1 20.6832 6.8944 -13.7888 0 0 0
73 1 27.5776 6.8944 -13.7888 0 0 0
43 1 3.4472 10.3416 -13.7888 0 0 0
48 2 5.1708 8.618 -12.0652 0 0 0
51 1 10.3416 10.3416 -13.7888 0 0 0
56 2 12.0652 8.618 -12.0652 0 0 0
59 1 17.236 10.3416 -13.7888 0 0 0
64 2 18.959600000000002 8.618 -12.0652 0 0 0
67 1 24.1304 10.3416 -13.7888 0 0 0
72 2 25.854 8.618 -12.0652 0 0 0
75 1 31.0248 10.3416 -13.7888 0 0 0
80 2 32.748400000000004 8.618 -12.0652 0 0 0
46 2 1.7236 12.0652 -12.0652 0 0 0
54 2 8.618 12.0652 -12.0652 0 0 0
62 2 15.5124 12.0652 -12.0652 0 0 0
70 2 22.4068 12.0652 -12.0652 0 0 0
78 2 29.3012 12.0652 -12.0652 0 0 0
81 1 0 13.7888 -13.7888 0 0 0
88 2 5.1708 15.5124 -12.0652 0 0 0
89 1 6.8944 13.7888 -13.7888 0 0 0
96 2 12.0652 15.5124 -12.0652 0 0 0
97 1 13.7888 13.7888 -13.7888 0 0 0
104 2 18.959600000000002 15.5124 -12.0652 0 0 0
105 1 20.6832 13.7888 -13.7888 0 0 0
112 2 25.854 15.5124 -12.0652 0 0 0
113 1 27.5776 13.7888 -13.7888 0 0 0
120 2 32.748400000000004 15.5124 -12.0652 0 0 0
83 1 3.4472 17.236 -13.7888 0 0 0
91 1 10.3416 17.236 -13.7888 0 0 0
99 1 17.236 17.236 -13.7888 0 0 0
107 1 24.1304 17.236 -13.7888 0 0 0
115 1 31.0248 17.236 -13.7888 0 0 0
86 2 1.7236 18.959600000000002 -12.0652 0 0 0
121 1 0 20.6832 -13.7888 0 0 0
129 1 6.8944 20.6832 -13.7888 0 0 0
94 2 8.618 18.959600000000002 -12.0652 0 0 0
102 2 15.5124 18.959600000000002 -12.0652 0 0 0
137 1 13.7888 20.6832 -13.7888 0 0 0
145 1 20.6832 20.6832 -13.7888 0 0 0
110 2 22.4068 18.959600000000002 -12.0652 0 0 0
153 1 27.5776 20.6832 -13.7888 0 0 0
118 2 29.3012 18.959600000000002 -12.0652 0 0 0
128 2 5.1708 22.4068 -12.0652 0 0 0
136 2 12.0652 22.4068 -12.0652 0 0 0
144 2 18.959600000000002 22.4068 -12.0652 0 0 0
152 2 25.854 22.4068 -12.0652 0 0 0
160 2 32.748400000000004 22.4068 -12.0652 0 0 0
126 2 1.7236 25.854 -12.0652 0 0 0
123 1 3.4472 24.1304 -13.7888 0 0 0
131 1 10.3416 24.1304 -13.7888 0 0 0
134 2 8.618 25.854 -12.0652 0 0 0
142 2 15.5124 25.854 -12.0652 0 0 0
139 1 17.236 24.1304 -13.7888 0 0 0
150 2 22.4068 25.854 -12.0652 0 0 0
147 1 24.1304 24.1304 -13.7888 0 0 0
155 1 31.0248 24.1304 -13.7888 0 0 0
158 2 29.3012 25.854 -12.0652 0 0 0
161 1 0 27.5776 -13.7888 0 0 0
169 1 6.8944 27.5776 -13.7888 0 0 0
177 1 13.7888 27.5776 -13.7888 0 0 0
185 1 20.6832 27.5776 -13.7888 0 0 0
193 1 27.5776 27.5776 -13.7888 0 0 0
163 1 3.4472 31.0248 -13.7888 0 0 0
168 2 5.1708 29.3012 -12.0652 0 0 0
171 1 10.3416 31.0248 -13.7888 0 0 0
176 2 12.0652 29.3012 -12.0652 0 0 0
179 1 17.236 31.0248 -13.7888 0 0 0
184 2 18.959600000000002 29.3012 -12.0652 0 0 0
187 1 24.1304 31.0248 -13.7888 0 0 0
192 2 25.854 29.3012 -12.0652 0 0 0
195 1 31.0248 31.0248 -13.7888 0 0 0
200 2 32.748400000000004 29.3012 -12.0652 0 0 0
166 2 1.7236 32.748400000000004 -12.0652 0 0 0
174 2 8.618 32.748400000000004 -12.0652 0 0 0
182 2 15.5124 32.748400000000004 -12.0652 0 0 0
190 2 22.4068 32.748400000000004 -12.0652 0 0 0
198 2 29.3012 32.748400000000004 -12.0652 0 0 0
7 2 1.7235999999942198 1.7235999999942093 -8.656119482682536 0 0 0
2 1 3.4472 0 -10.3416 0 0 0
10 1 10.3416 0 -10.3416 0 0 0
15 2 8.61799999999427 1.7235999999942113 -8.656119482682564 0 0 0
23 2 15.512399999994305 1.7235999999942844 -8.656119482682577 0 0 0
18 1 17.236 0 -10.3416 0 0 0
31 2 22.406799999994302 1.7235999999942178 -8.656119482682556 0 0 0
26 1 24.1304 0 -10.3416 0 0 0
34 1 31.0248 0 -10.3416 0 0 0
39 2 29.301199999994274 1.723599999994236 -8.656119482682577 0 0 0
4 1 0 3.4472 -10.3416 0 0 0
5 2 5.170799999994233 5.170799999994202 -8.656119482682557 0 0 0
12 1 6.8944 3.4472 -10.3416 0 0 0
13 2 12.065199999994249 5.170799999994233 -8.656119482682566 0 0 0
20 1 13.7888 3.4472 -10.3416 0 0 0
21 2 18.959599999994275 5.170799999994237 -8.656119482682527 0 0 0
28 1 20.6832 3.4472 -10.3416 0 0 0
29 2 25.85399999999431 5.1707999999942516 -8.656119482682493 0 0 0
36 1 27.5776 3.4472 -10.3416 0 0 0
37 2 32.74839999999424 5.170799999994255 -8.656119482682518 0 0 0
42 1 3.4472 6.8944 -10.3416 0 0 0
50 1 10.3416 6.8944 -10.3416 0 0 0
58 1 17.236 6.8944 -10.3416 0 0 0
66 1 24.1304 6.8944 -10.3416 0 0 0
74 1 31.0248 6.8944 -10.3416 0 0 0
44 1 0 10.3416 -10.3416 0 0 0
47 2 1.7235999999942397 8.617999999994217 -8.656119482682541 0 0 0
52 1 6.8944 10.3416 -10.3416 0 0 0
55 2 8.617999999994277 8.617999999994243 -8.656119482682543 0 0 0
60 1 13.7888 10.3416 -10.3416 0 0 0
63 2 15.512399999994267 8.61799999999423 -8.656119482682536 0 0 0
68 1 20.6832 10.3416 -10.3416 0 0 0
71 2 22.4067999999943 8.617999999994232 -8.656119482682605 0 0 0
76 1 27.5776 10.3416 -10.3416 0 0 0
79 2 29.3011999999943 8.617999999994217 -8.656119482682582 0 0 0
45 2 5.17079999999428 12.06519999999422 -8.656119482682575 0 0 0
53 2 12.065199999994293 12.065199999994208 -8.656119482682547 0 0 0
61 2 18.95959999999426 12.065199999994219 -8.656119482682527 0 0 0
69 2 25.85399999999424 12.065199999994245 -8.656119482682515 0 0 0
77 2 32.74839999999431 12.065199999994205 -8.656119482682508 0 0 0
87 2 1.7235999999942226 15.512399999994233 -8.656119482682522 0 0 0
82 1 3.4472 13.7888 -10.3416 0 0 0
90 1 10.3416 13.7888 -10.3416 0 0 0
95 2 8.617999999994277 15.512399999994203 -8.65611948268255 0 0 0
103 2 15.512399999994221 15.512399999994228 -8.656119482682543 0 0 0
98 1 17.236 13.7888 -10.3416 0 0 0
111 2 22.406799999994224 15.512399999994292 -8.656119482682541 0 0 0
106 1 24.1304 13.7888 -10.3416 0 0 0
114 1 31.0248 13.7888 -10.3416 0 0 0
119 2 29.301199999994218 15.512399999994242 -8.656119482682547 0 0 0
84 1 0 17.236 -10.3416 0 0 0
92 1 6.8944 17.236 -10.3416 0 0 0
100 1 13.7888 17.236 -10.3416 0 0 0
108 1 20.6832 17.236 -10.3416 0 0 0
116 1 27.5776 17.236 -10.3416 0 0 0
85 2 5.1707999999943 18.959599999994268 -8.656119482682541 0 0 0
122 1 3.4472 20.6832 -10.3416 0 0 0
130 1 10.3416 20.6832 -10.3416 0 0 0
93 2 12.065199999994267 18.95959999999423 -8.656119482682563 0 0 0
138 1 17.236 20.6832 -10.3416 0 0 0
101 2 18.959599999994218 18.95959999999422 -8.656119482682548 0 0 0
109 2 25.853999999994258 18.959599999994282 -8.656119482682504 0 0 0
146 1 24.1304 20.6832 -10.3416 0 0 0
154 1 31.0248 20.6832 -10.3416 0 0 0
117 2 32.748399999994234 18.95959999999429 -8.65611948268253 0 0 0
127 2 1.7235999999942198 22.406799999994213 -8.656119482682497 0 0 0
135 2 8.617999999994312 22.406799999994178 -8.656119482682554 0 0 0
143 2 15.512399999994228 22.406799999994245 -8.656119482682534 0 0 0
151 2 22.40679999999421 22.406799999994245 -8.65611948268261 0 0 0
159 2 29.3011999999943 22.40679999999423 -8.656119482682582 0 0 0
124 1 0 24.1304 -10.3416 0 0 0
125 2 5.170799999994286 25.853999999994215 -8.656119482682575 0 0 0
132 1 6.8944 24.1304 -10.3416 0 0 0
133 2 12.0651999999943 25.85399999999427 -8.656119482682515 0 0 0
140 1 13.7888 24.1304 -10.3416 0 0 0
141 2 18.959599999994225 25.853999999994205 -8.656119482682508 0 0 0
148 1 20.6832 24.1304 -10.3416 0 0 0
149 2 25.853999999994297 25.853999999994215 -8.656119482682506 0 0 0
156 1 27.5776 24.1304 -10.3416 0 0 0
157 2 32.74839999999431 25.853999999994176 -8.656119482682584 0 0 0
162 1 3.4472 27.5776 -10.3416 0 0 0
170 1 10.3416 27.5776 -10.3416 0 0 0
178 1 17.236 27.5776 -10.3416 0 0 0
186 1 24.1304 27.5776 -10.3416 0 0 0
194 1 31.0248 27.5776 -10.3416 0 0 0
164 1 0 31.0248 -10.3416 0 0 0
167 2 1.7235999999943217 29.301199999994257 -8.65611948268252 0 0 0
172 1 6.8944 31.0248 -10.3416 0 0 0
175 2 8.617999999994245 29.301199999994253 -8.656119482682506 0 0 0
180 1 13.7888 31.0248 -10.3416 0 0 0
183 2 15.512399999994269 29.301199999994243 -8.656119482682577 0 0 0
188 1 20.6832 31.0248 -10.3416 0 0 0
191 2 22.406799999994213 29.301199999994243 -8.656119482682522 0 0 0
196 1 27.5776 31.0248 -10.3416 0 0 0
199 2 29.301199999994218 29.301199999994203 -8.656119482682552 0 0 0
165 2 5.170799999994244 32.74839999999418 -8.65611948268258 0 0 0
173 2 12.065199999994286 32.74839999999422 -8.656119482682584 0 0 0
181 2 18.959599999994186 32.74839999999437 -8.656119482682513 0 0 0
189 2 25.853999999994343 32.74839999999424 -8.656119482682513 0 0 0
197 2 32.74839999999424 32.748399999994156 -8.656119482682534 0 0 0
201 1 6.529887741635321e-12 6.807659127703754e-12 -6.969676715870518 0 0 0
209 1 6.894400000006507 6.764366844436154e-12 -6.96967671587049 0 0 0
217 1 13.788800000006452 6.7866626688989024e-12 -6.96967671587054 0 0 0
225 1 20.683200000006494 6.764366844436154e-12 -6.969676715870534 0 0 0
233 1 27.577600000006512 6.743050562363351e-12 -6.969676715870489 0 0 0
203 1 3.4472000000065437 3.4472000000067844 -6.969676715870468 0 0 0
211 1 10.34160000000655 3.4472000000067715 -6.969676715870495 0 0 0
219 1 17.236000000006435 3.4472000000067577 -6.969676715870527 0 0 0
227 1 24.13040000000647 3.4472000000067062 -6.96967671587049 0 0 0
235 1 31.024800000006493 3.447200000006777 -6.969676715870508 0 0 0
241 1 6.512419066876615e-12 6.894400000006755 -6.969676715870496 0 0 0
249 1 6.89440000000653 6.894400000006791 -6.969676715870495 0 0 0
257 1 13.788800000006502 6.8944000000067645 -6.969676715870478 0 0 0
265 1 20.683200000006558 6.8944000000067565 -6.969676715870479 0 0 0
273 1 27.577600000006502 6.894400000006737 -6.969676715870527 0 0 0
243 1 3.4472000000065277 10.341600000006798 -6.9696767158704676 0 0 0
251 1 10.341600000006508 10.341600000006771 -6.969676715870481 0 0 0
259 1 17.236000000006484 10.341600000006776 -6.96967671587049 0 0 0
267 1 24.130400000006478 10.341600000006725 -6.969676715870496 0 0 0
275 1 31.024800000006497 10.341600000006773 -6.969676715870485 0 0 0
281 1 6.537931293908465e-12 13.788800000006772 -6.96967671587048 0 0 0
289 1 6.894400000006534 13.788800000006749 -6.9696767158705 0 0 0
297 1 13.788800000006527 13.788800000006763 -6.969676715870519 0 0 0
305 1 20.683200000006504 13.788800000006798 -6.969676715870472 0 0 0
313 1 27.577600000006505 13.788800000006738 -6.969676715870488 0 0 0
283 1 3.447200000006476 17.236000000006747 -6.96967671587049 0 0 0
291 1 10.341600000006501 17.236000000006783 -6.969676715870497 0 0 0
299 1 17.236000000006513 17.236000000006776 -6.969676715870506 0 0 0
307 1 24.13040000000646 17.236000000006758 -6.969676715870474 0 0 0
315 1 31.024800000006486 17.23600000000681 -6.969676715870488 0 0 0
321 1 6.515676886920119e-12 20.683200000006803 -6.969676715870476 0 0 0
329 1 6.894400000006515 20.683200000006753 -6.9696767158705 0 0 0
337 1 13.788800000006535 20.68320000000679 -6.9696767158705315 0 0 0
345 1 20.683200000006565 20.683200000006767 -6.969676715870462 0 0 0
353 1 27.577600000006488 20.683200000006778 -6.96967671587046 0 0 0
323 1 3.447200000006484 24.13040000000679 -6.969676715870478 0 0 0
331 1 10.341600000006483 24.130400000006766 -6.969676715870494 0 0 0
339 1 17.236000000006555 24.13040000000677 -6.969676715870529 0 0 0
347 1 24.130400000006542 24.13040000000675 -6.969676715870483 0 0 0
355 1 31.02480000000649 24.130400000006745 -6.969676715870506 0 0 0
361 1 6.4868685427545095e-12 27.577600000006736 -6.969676715870491 0 0 0
369 1 6.894400000006511 27.577600000006765 -6.969676715870475 0 0 0
377 1 13.78880000000649 27.57760000000675 -6.969676715870485 0 0 0
385 1 20.6832000000065 27.577600000006832 -6.969676715870472 0 0 0
393 1 27.577600000006527 27.577600000006832 -6.969676715870507 0 0 0
363 1 3.4472000000065157 31.02480000000676 -6.9696767158705 0 0 0
371 1 10.34160000000652 31.024800000006753 -6.969676715870515 0 0 0
379 1 17.236000000006474 31.02480000000674 -6.969676715870486 0 0 0
387 1 24.130400000006485 31.024800000006717 -6.969676715870423 0 0 0
395 1 31.024800000006543 31.024800000006817 -6.969676715870556 0 0 0
202 1 3.4472000000127334 1.3152146038919454e-11 -3.5969261436438074 0 0 0
208 2 5.170799999987971 1.7235999999877654 -5.283302897677177 0 0 0
210 1 10.341600000012658 1.318767317570746e-11 -3.5969261436438527 0 0 0
216 2 12.065199999988009 1.7235999999877287 -5.283302897677135 0 0 0
218 1 17.236000000012588 1.3137997765802493e-11 -3.5969261436437945 0 0 0
224 2 18.95959999998811 1.7235999999877618 -5.283302897677183 0 0 0
226 1 24.13040000001267 1.3149113040388503e-11 -3.5969261436438025 0 0 0
232 2 25.853999999988076 1.7235999999877887 -5.283302897677153 0 0 0
234 1 31.02480000001264 1.3205266837546869e-11 -3.5969261436438287 0 0 0
240 2 32.74839999998804 1.7235999999877163 -5.283302897677187 0 0 0
204 1 1.2676246460506704e-11 3.4472000000132286 -3.5969261436437723 0 0 0
206 2 1.7235999999880056 5.170799999987719 -5.2833028976771965 0 0 0
212 1 6.894400000012733 3.4472000000131966 -3.596926143643797 0 0 0
214 2 8.61799999998801 5.1707999999877154 -5.2833028976771415 0 0 0
220 1 13.788800000012689 3.4472000000131886 -3.5969261436438282 0 0 0
222 2 15.512399999988057 5.1707999999877385 -5.283302897677154 0 0 0
228 1 20.683200000012636 3.4472000000131655 -3.5969261436438114 0 0 0
230 2 22.406799999988063 5.170799999987806 -5.283302897677187 0 0 0
236 1 27.57760000001268 3.4472000000131513 -3.5969261436438273 0 0 0
238 2 29.301199999988015 5.170799999987724 -5.283302897677139 0 0 0
242 1 3.4472000000126983 6.894400000013184 -3.5969261436437687 0 0 0
250 1 10.341600000012717 6.894400000013175 -3.596926143643798 0 0 0
258 1 17.236000000012652 6.894400000013141 -3.596926143643789 0 0 0
266 1 24.13040000001263 6.894400000013127 -3.596926143643782 0 0 0
274 1 31.024800000012704 6.894400000013158 -3.5969261436438043 0 0 0
244 1 1.2704279334038906e-11 10.341600000013177 -3.596926143643811 0 0 0
248 2 5.170799999988005 8.61799999998772 -5.283302897677153 0 0 0
252 1 6.894400000012696 10.34160000001319 -3.5969261436437776 0 0 0
256 2 12.065199999987989 8.61799999998773 -5.283302897677174 0 0 0
260 1 13.788800000012692 10.34160000001318 -3.596926143643823 0 0 0
264 2 18.959599999988022 8.617999999987747 -5.2833028976771645 0 0 0
268 1 20.683200000012654 10.341600000013196 -3.5969261436437883 0 0 0
272 2 25.853999999988037 8.61799999998776 -5.283302897677196 0 0 0
276 1 27.57760000001272 10.341600000013171 -3.596926143643798 0 0 0
280 2 32.748399999987996 8.617999999987727 -5.283302897677152 0 0 0
246 2 1.723599999988013 12.06519999998774 -5.283302897677184 0 0 0
254 2 8.617999999988006 12.06519999998774 -5.283302897677192 0 0 0
262 2 15.512399999988055 12.065199999987758 -5.283302897677165 0 0 0
270 2 22.406799999988046 12.065199999987744 -5.283302897677186 0 0 0
278 2 29.301199999988036 12.065199999987767 -5.283302897677176 0 0 0
282 1 3.4472000000126646 13.788800000013115 -3.5969261436438016 0 0 0
288 2 5.170799999988051 15.51239999998776 -5.283302897677192 0 0 0
290 1 10.341600000012697 13.788800000013138 -3.5969261436437936 0 0 0
296 2 12.065199999988002 15.512399999987739 -5.283302897677173 0 0 0
298 1 17.236000000012666 13.78880000001317 -3.5969261436438322 0 0 0
304 2 18.959599999988065 15.512399999987704 -5.283302897677159 0 0 0
306 1 24.13040000001267 13.788800000013165 -3.5969261436437856 0 0 0
312 2 25.853999999988066 15.512399999987762 -5.283302897677163 0 0 0
314 1 31.02480000001263 13.788800000013197 -3.596926143643831 0 0 0
320 2 32.748399999988095 15.51239999998772 -5.28330289767718 0 0 0
284 1 1.2646577090818065e-11 17.236000000013213 -3.596926143643821 0 0 0
292 1 6.894400000012688 17.236000000013192 -3.5969261436438047 0 0 0
300 1 13.788800000012674 17.236000000013224 -3.5969261436438216 0 0 0
308 1 20.683200000012693 17.23600000001318 -3.5969261436438007 0 0 0
316 1 27.57760000001265 17.23600000001323 -3.5969261436437803 0 0 0
286 2 1.7235999999880054 18.959599999987727 -5.283302897677177 0 0 0
322 1 3.4472000000126894 20.68320000001315 -3.5969261436438025 0 0 0
294 2 8.617999999988017 18.959599999987752 -5.283302897677165 0 0 0
330 1 10.341600000012699 20.683200000013162 -3.5969261436438305 0 0 0
302 2 15.512399999988038 18.959599999987738 -5.283302897677151 0 0 0
338 1 17.2360000000127 20.683200000013212 -3.5969261436438114 0 0 0
310 2 22.406799999988028 18.9595999999877 -5.283302897677187 0 0 0
346 1 24.130400000012656 20.683200000013166 -3.596926143643823 0 0 0
318 2 29.30119999998801 18.959599999987752 -5.283302897677161 0 0 0
354 1 31.02480000001267 20.683200000013166 -3.5969261436438194 0 0 0
328 2 5.170799999988032 22.406799999987744 -5.2833028976771494 0 0 0
336 2 12.06519999998799 22.406799999987715 -5.283302897677162 0 0 0
344 2 18.95959999998799 22.40679999998773 -5.283302897677166 0 0 0
352 2 25.853999999988083 22.406799999987715 -5.283302897677216 0 0 0
360 2 32.74839999998804 22.4067999999877 -5.283302897677216 0 0 0
324 1 1.2718714970105793e-11 24.130400000013204 -3.5969261436438713 0 0 0
326 2 1.7235999999880576 25.853999999987728 -5.283302897677112 0 0 0
332 1 6.894400000012672 24.130400000013186 -3.5969261436438424 0 0 0
334 2 8.617999999988033 25.85399999998774 -5.283302897677123 0 0 0
340 1 13.788800000012674 24.130400000013193 -3.5969261436438065 0 0 0
342 2 15.512399999988013 25.853999999987774 -5.283302897677176 0 0 0
348 1 20.6832000000126 24.130400000013196 -3.5969261436437687 0 0 0
350 2 22.406799999988074 25.85399999998776 -5.283302897677175 0 0 0
356 1 27.5776000000126 24.130400000013186 -3.5969261436437745 0 0 0
358 2 29.30119999998804 25.85399999998775 -5.283302897677191 0 0 0
362 1 3.4472000000126815 27.577600000013156 -3.5969261436438478 0 0 0
370 1 10.341600000012656 27.577600000013142 -3.596926143643814 0 0 0
378 1 17.236000000012666 27.57760000001324 -3.596926143643815 0 0 0
386 1 24.1304000000127 27.577600000013188 -3.596926143643781 0 0 0
394 1 31.024800000012696 27.577600000013184 -3.596926143643831 0 0 0
364 1 1.27613475342514e-11 31.02480000001319 -3.5969261436438207 0 0 0
368 2 5.170799999988012 29.301199999987716 -5.283302897677145 0 0 0
372 1 6.894400000012703 31.024800000013165 -3.5969261436438074 0 0 0
376 2 12.065199999988094 29.30119999998776 -5.283302897677168 0 0 0
380 1 13.788800000012628 31.024800000013137 -3.5969261436438043 0 0 0
384 2 18.95959999998805 29.301199999987688 -5.283302897677161 0 0 0
388 1 20.68320000001266 31.02480000001316 -3.5969261436438438 0 0 0
392 2 25.85399999998805 29.301199999987727 -5.283302897677183 0 0 0
396 1 27.577600000012698 31.024800000013116 -3.596926143643789 0 0 0
400 2 32.74839999998803 29.30119999998772 -5.283302897677138 0 0 0
366 2 1.7235999999879885 32.74839999998771 -5.2833028976771885 0 0 0
374 2 8.617999999988031 32.74839999998775 -5.283302897677126 0 0 0
382 2 15.512399999988098 32.74839999998773 -5.283302897677124 0 0 0
390 2 22.406799999988063 32.74839999998775 -5.283302897677164 0 0 0
398 2 29.301199999987993 32.74839999998776 -5.283302897677183 0 0 0
207 2 1.72359999998252 1.7235999999820029 -1.910549556347833 0 0 0
215 2 8.617999999982505 1.7235999999819787 -1.9105495563478243 0 0 0
223 2 15.51239999998255 1.7235999999820122 -1.9105495563478068 0 0 0
231 2 22.406799999982557 1.723599999982002 -1.9105495563477841 0 0 0
239 2 29.30119999998249 1.7235999999820186 -1.9105495563478516 0 0 0
205 2 5.170799999982468 5.1707999999819885 -1.910549556347828 0 0 0
213 2 12.06519999998246 5.170799999981993 -1.9105495563478312 0 0 0
221 2 18.95959999998249 5.170799999981996 -1.910549556347831 0 0 0
229 2 25.853999999982552 5.170799999982015 -1.9105495563478407 0 0 0
237 2 32.748399999982524 5.170799999982027 -1.9105495563478516 0 0 0
247 2 1.723599999982489 8.617999999981974 -1.910549556347832 0 0 0
255 2 8.617999999982464 8.61799999998197 -1.9105495563478534 0 0 0
263 2 15.512399999982538 8.61799999998199 -1.910549556347803 0 0 0
271 2 22.406799999982525 8.61799999998201 -1.9105495563478443 0 0 0
279 2 29.30119999998252 8.617999999982004 -1.9105495563477872 0 0 0
245 2 5.170799999982531 12.065199999981985 -1.9105495563478088 0 0 0
253 2 12.065199999982529 12.065199999982015 -1.9105495563478125 0 0 0
261 2 18.959599999982508 12.065199999981944 -1.910549556347842 0 0 0
269 2 25.8539999999825 12.065199999982017 -1.910549556347838 0 0 0
277 2 32.74839999998254 12.065199999981921 -1.9105495563478103 0 0 0
287 2 1.7235999999825384 15.512399999982017 -1.9105495563478194 0 0 0
295 2 8.617999999982489 15.512399999981994 -1.9105495563478092 0 0 0
303 2 15.512399999982552 15.512399999981945 -1.9105495563477983 0 0 0
311 2 22.406799999982532 15.512399999982026 -1.9105495563478503 0 0 0
319 2 29.301199999982476 15.512399999981945 -1.9105495563478387 0 0 0
285 2 5.170799999982498 18.959599999981982 -1.9105495563478154 0 0 0
293 2 12.065199999982509 18.959599999981958 -1.910549556347821 0 0 0
301 2 18.9595999999825 18.95959999998195 -1.9105495563478325 0 0 0
309 2 25.853999999982516 18.959599999981886 -1.9105495563478443 0 0 0
317 2 32.74839999998251 18.959599999981926 -1.910549556347818 0 0 0
327 2 1.7235999999825407 22.406799999981995 -1.9105495563478225 0 0 0
335 2 8.617999999982496 22.406799999982 -1.9105495563478367 0 0 0
343 2 15.512399999982529 22.40679999998196 -1.91054955634783 0 0 0
351 2 22.406799999982564 22.406799999982 -1.9105495563478232 0 0 0
359 2 29.301199999982522 22.406799999981928 -1.9105495563478563 0 0 0
325 2 5.170799999982529 25.85399999998202 -1.910549556347844 0 0 0
333 2 12.065199999982477 25.853999999981994 -1.9105495563477999 0 0 0
341 2 18.95959999998254 25.853999999981966 -1.910549556347851 0 0 0
349 2 25.853999999982502 25.85399999998202 -1.9105495563478527 0 0 0
357 2 32.748399999982446 25.853999999981976 -1.9105495563477985 0 0 0
367 2 1.7235999999824914 29.301199999981925 -1.9105495563478199 0 0 0
375 2 8.617999999982457 29.301199999981975 -1.9105495563478347 0 0 0
383 2 15.512399999982545 29.301199999981954 -1.9105495563478423 0 0 0
391 2 22.406799999982592 29.30119999998196 -1.9105495563478254 0 0 0
399 2 29.301199999982483 29.30119999998204 -1.9105495563478156 0 0 0
365 2 5.170799999982484 32.748399999982 -1.9105495563477837 0 0 0
373 2 12.065199999982525 32.74839999998195 -1.910549556347848 0 0 0
381 2 18.95959999998255 32.74839999998201 -1.910549556347805 0 0 0
389 2 25.85399999998249 32.74839999998201 -1.9105495563478343 0 0 0
397 2 32.74839999998249 32.74839999998195 -1.9105495563477726 0 0 0
401 1 1.8097523479809752e-11 1.873189009786582e-11 -0.22417294668600685 0 0 0
408 2 5.170799999978033 1.7235999999773446 1.4622036573288475 0 0 0
409 1 6.894400000018076 1.8780285888588506e-11 -0.22417294668606852 0 0 0
416 2 12.065199999978091 1.7235999999773803 1.4622036573288324 0 0 0
417 1 13.788800000018114 1.8815171642927453e-11 -0.2241729466859983 0 0 0
424 2 18.959599999978078 1.7235999999774079 1.462203657328843 0 0 0
425 1 20.68320000001807 1.8755856160743392e-11 -0.22417294668603313 0 0 0
432 2 25.853999999978093 1.7235999999774214 1.4622036573288613 0 0 0
433 1 27.5776000000181 1.8705129664870556e-11 -0.22417294668601334 0 0 0
440 2 32.748399999978076 1.7235999999773988 1.462203657328869 0 0 0
406 2 1.7235999999780522 5.17079999997742 1.4622036573288826 0 0 0
403 1 3.4472000000181304 3.4472000000187935 -0.22417294668603024 0 0 0
411 1 10.341600000018115 3.4472000000187863 -0.22417294668603313 0 0 0
414 2 8.617999999978068 5.170799999977374 1.462203657328852 0 0 0
422 2 15.512399999978065 5.170799999977368 1.4622036573288089 0 0 0
419 1 17.23600000001806 3.4472000000187824 -0.22417294668602492 0 0 0
430 2 22.406799999978098 5.170799999977351 1.4622036573288788 0 0 0
427 1 24.130400000018042 3.4472000000187637 -0.22417294668603654 0 0 0
435 1 31.024800000018068 3.447200000018786 -0.224172946686027 0 0 0
438 2 29.301199999978127 5.1707999999774374 1.4622036573288293 0 0 0
441 1 1.809395394149255e-11 6.894400000018762 -0.224172946686022 0 0 0
449 1 6.894400000018103 6.894400000018805 -0.22417294668601334 0 0 0
457 1 13.78880000001811 6.894400000018756 -0.22417294668597812 0 0 0
465 1 20.683200000018044 6.8944000000187655 -0.2241729466859843 0 0 0
473 1 27.577600000018094 6.8944000000187655 -0.22417294668600446 0 0 0
443 1 3.447200000018124 10.341600000018774 -0.22417294668602977 0 0 0
448 2 5.17079999997803 8.617999999977318 1.4622036573288857 0 0 0
451 1 10.341600000018115 10.34160000001877 -0.22417294668602675 0 0 0
456 2 12.065199999978073 8.617999999977322 1.4622036573288415 0 0 0
459 1 17.23600000001808 10.34160000001877 -0.22417294668602444 0 0 0
464 2 18.959599999978092 8.617999999977373 1.4622036573288253 0 0 0
467 1 24.130400000018106 10.341600000018738 -0.22417294668604174 0 0 0
472 2 25.853999999978086 8.617999999977338 1.4622036573288129 0 0 0
475 1 31.02480000001806 10.341600000018714 -0.22417294668602894 0 0 0
480 2 32.74839999997811 8.617999999977416 1.462203657328825 0 0 0
446 2 1.7235999999780682 12.065199999977361 1.462203657328847 0 0 0
454 2 8.617999999978016 12.065199999977397 1.462203657328838 0 0 0
462 2 15.512399999978093 12.065199999977345 1.4622036573287966 0 0 0
470 2 22.40679999997808 12.065199999977361 1.4622036573288748 0 0 0
478 2 29.301199999978078 12.065199999977358 1.4622036573287946 0 0 0
481 1 1.8069101770379348e-11 13.788800000018805 -0.22417294668599919 0 0 0
488 2 5.170799999978118 15.512399999977378 1.4622036573288337 0 0 0
489 1 6.894400000018095 13.788800000018751 -0.22417294668603233 0 0 0
496 2 12.065199999978052 15.512399999977344 1.462203657328814 0 0 0
497 1 13.788800000018053 13.788800000018798 -0.22417294668602783 0 0 0
504 2 18.959599999978053 15.512399999977386 1.4622036573288202 0 0 0
505 1 20.683200000018072 13.788800000018803 -0.22417294668600724 0 0 0
512 2 25.853999999978054 15.512399999977344 1.4622036573288295 0 0 0
513 1 27.577600000018094 13.7888000000188 -0.22417294668600152 0 0 0
520 2 32.74839999997804 15.512399999977346 1.4622036573288706 0 0 0
483 1 3.4472000000180874 17.236000000018816 -0.2241729466860281 0 0 0
491 1 10.341600000018131 17.23600000001878 -0.22417294668601823 0 0 0
499 1 17.23600000001809 17.2360000000188 -0.22417294668597953 0 0 0
507 1 24.13040000001804 17.236000000018837 -0.22417294668599325 0 0 0
515 1 31.02480000001811 17.236000000018816 -0.2241729466860029 0 0 0
486 2 1.7235999999780889 18.95959999997735 1.4622036573288675 0 0 0
521 1 1.8061996343021747e-11 20.68320000001878 -0.22417294668602689 0 0 0
529 1 6.894400000018036 20.683200000018775 -0.2241729466859976 0 0 0
494 2 8.617999999978073 18.95959999997738 1.4622036573288757 0 0 0
502 2 15.512399999978117 18.959599999977364 1.462203657328853 0 0 0
537 1 13.788800000018071 20.68320000001877 -0.22417294668602528 0 0 0
545 1 20.683200000018044 20.683200000018793 -0.22417294668597637 0 0 0
510 2 22.40679999997813 18.95959999997731 1.462203657328792 0 0 0
553 1 27.577600000018094 20.683200000018775 -0.22417294668596283 0 0 0
518 2 29.301199999978078 18.959599999977332 1.4622036573288317 0 0 0
528 2 5.170799999978035 22.406799999977363 1.4622036573288275 0 0 0
536 2 12.065199999978088 22.406799999977377 1.4622036573288457 0 0 0
544 2 18.95959999997812 22.40679999997734 1.462203657328834 0 0 0
552 2 25.853999999978097 22.406799999977338 1.4622036573288368 0 0 0
560 2 32.748399999978076 22.40679999997734 1.4622036573288484 0 0 0
526 2 1.7235999999780174 25.85399999997737 1.4622036573288508 0 0 0
523 1 3.447200000018154 24.130400000018746 -0.2241729466859921 0 0 0
531 1 10.341600000018143 24.13040000001881 -0.22417294668602952 0 0 0
534 2 8.617999999978052 25.85399999997733 1.4622036573287704 0 0 0
542 2 15.512399999978108 25.853999999977365 1.4622036573288368 0 0 0
539 1 17.236000000018066 24.13040000001879 -0.2241729466860258 0 0 0
550 2 22.40679999997816 25.853999999977322 1.46220365732884 0 0 0
547 1 24.13040000001805 24.130400000018817 -0.2241729466859873 0 0 0
555 1 31.02480000001811 24.130400000018795 -0.2241729466859919 0 0 0
558 2 29.301199999978056 25.853999999977326 1.4622036573288357 0 0 0
561 1 1.814726147131296e-11 27.577600000018823 -0.2241729466860108 0 0 0
569 1 6.894400000018064 27.577600000018805 -0.22417294668603926 0 0 0
577 1 13.788800000018059 27.5776000000188 -0.224172946686006 0 0 0
585 1 20.683200000018026 27.57760000001883 -0.22417294668600338 0 0 0
593 1 27.577600000018066 27.57760000001879 -0.22417294668606003 0 0 0
563 1 3.4472000000181144 31.024800000018796 -0.2241729466860026 0 0 0
568 2 5.170799999978052 29.301199999977378 1.462203657328827 0 0 0
571 1 10.341600000018085 31.024800000018775 -0.22417294668605017 0 0 0
576 2 12.065199999978155 29.30119999997733 1.4622036573288555 0 0 0
579 1 17.236000000018024 31.024800000018814 -0.22417294668598606 0 0 0
584 2 18.95959999997811 29.30119999997731 1.4622036573288184 0 0 0
587 1 24.130400000018078 31.024800000018775 -0.2241729466860153 0 0 0
592 2 25.85399999997809 29.301199999977353 1.4622036573288604 0 0 0
595 1 31.024800000018097 31.02480000001874 -0.22417294668603094 0 0 0
600 2 32.74839999997805 29.30119999997737 1.4622036573288368 0 0 0
566 2 1.7235999999780662 32.74839999997734 1.4622036573288417 0 0 0
574 2 8.617999999978052 32.748399999977345 1.4622036573288575 0 0 0
582 2 15.512399999978076 32.74839999997727 1.46220365732885 0 0 0
590 2 22.40679999997811 32.74839999997736 1.4622036573288426 0 0 0
598 2 29.301199999978074 32.7483999999774 1.4622036573288608 0 0 0
402 1 3.4472000000224123 2.318273236402367e-11 3.14858028285469 0 0 0
410 1 10.341600000022368 2.3223536257585417e-11 3.148580282854725 0 0 0
418 1 17.236000000022358 2.319211489520967e-11 3.148580282854716 0 0 0
426 1 24.130400000022377 2.3129234026156878e-11 3.148580282854715 0 0 0