LAMMPS data file via write_data, version 29 Sep 2021, timestep = 247

1250 atoms
2 atom types

0 35 xlo xhi
0 35 ylo yhi
-14 56 zlo zhi

Masses

1 112.411
2 127.6

Atoms # atomic

1 1 0 0 -14 0 0 0
8 2 5.25 1.75 -12.25 0 0 0
9 1 7 0 -14 0 0 0
16 2 12.25 1.75 -12.25 0 0 0
17 1 14 0 -14 0 0 0
24 2 19.25 1.75 -12.25 0 0 0
25 1 21 0 -14 0 0 0
32 2 26.25 1.75 -12.25 0 0 0
33 1 28 0 -14 0 0 0
40 2 33.25 1.75 -12.25 0 0 0
6 2 1.75 5.25 -12.25 0 0 0
3 1 3.5 3.5 -14 0 0 0
11 1 10.5 3.5 -14 0 0 0
14 2 8.75 5.25 -12.25 0 0 0
22 2 15.75 5.25 -12.25 0 0 0
19 1 17.5 3.5 -14 0 0 0
30 2 22.75 5.25 -12.25 0 0 0
27 1 24.5 3.5 -14 0 0 0
35 1 31.5 3.5 -14 0 0 0
38 2 29.75 5.25 -12.25 0 0 0
41 1 0 7 -14 0 0 0
49 1 7 7 -14 0 0 0
57 1 14 7 -14 0 0 0
65 1 21 7 -14 0 0 0
73 1 28 7 -14 0 0 0
43 1 3.5 10.5 -14 0 0 0
48 2 5.25 8.75 -12.25 0 0 0
51 1 10.5 10.5 -14 0 0 0
56 2 12.25 8.75 -12.25 0 0 0
59 1 17.5 10.5 -14 0 0 0
64 2 19.25 8.75 -12.25 0 0 0
67 1 24.5 10.5 -14 0 0 0
72 2 26.25 8.75 -12.25 0 0 0
75 1 31.5 10.5 -14 0 0 0
80 2 33.25 8.75 -12.25 0 0 0
46 2 1.75 12.25 -12.25 0 0 0
54 2 8.75 12.25 -12.25 0 0 0
62 2 15.75 12.25 -12.25 0 0 0
70 2 22.75 12.25 -12.25 0 0 0
78 2 29.75 12.25 -12.25 0 0 0
81 1 0 14 -14 0 0 0
88 2 5.25 15.75 -12.25 0 0 0
89 1 7 14 -14 0 0 0
96 2 12.25 15.75 -12.25 0 0 0
97 1 14 14 -14 0 0 0
104 2 19.25 15.75 -12.25 0 0 0
105 1 21 14 -14 0 0 0
112 2 26.25 15.75 -12.25 0 0 0
113 1 28 14 -14 0 0 0
120 2 33.25 15.75 -12.25 0 0 0
83 1 3.5 17.5 -14 0 0 0
91 1 10.5 17.5 -14 0 0 0
99 1 17.5 17.5 -14 0 0 0
107 1 24.5 17.5 -14 0 0 0
115 1 31.5 17.5 -14 0 0 0
86 2 1.75 19.25 -12.25 0 0 0
121 1 0 21 -14 0 0 0
129 1 7 21 -14 0 0 0
94 2 8.75 19.25 -12.25 0 0 0
102 2 15.75 19.25 -12.25 0 0 0
137 1 14 21 -14 0 0 0
145 1 21 21 -14 0 0 0
110 2 22.75 19.25 -12.25 0 0 0
153 1 28 21 -14 0 0 0
118 2 29.75 19.25 -12.25 0 0 0
128 2 5.25 22.75 -12.25 0 0 0
136 2 12.25 22.75 -12.25 0 0 0
144 2 19.25 22.75 -12.25 0 0 0
152 2 26.25 22.75 -12.25 0 0 0
160 2 33.25 22.75 -12.25 0 0 0
126 2 1.75 26.25 -12.25 0 0 0
123 1 3.5 24.5 -14 0 0 0
131 1 10.5 24.5 -14 0 0 0
134 2 8.75 26.25 -12.25 0 0 0
142 2 15.75 26.25 -12.25 0 0 0
139 1 17.5 24.5 -14 0 0 0
150 2 22.75 26.25 -12.25 0 0 0
147 1 24.5 24.5 -14 0 0 0
155 1 31.5 24.5 -14 0 0 0
158 2 29.75 26.25 -12.25 0 0 0
161 1 0 28 -14 0 0 0
169 1 7 28 -14 0 0 0
177 1 14 28 -14 0 0 0
185 1 21 28 -14 0 0 0
193 1 28 28 -14 0 0 0
163 1 3.5 31.5 -14 0 0 0
168 2 5.25 29.75 -12.25 0 0 0
171 1 10.5 31.5 -14 0 0 0
176 2 12.25 29.75 -12.25 0 0 0
179 1 17.5 31.5 -14 0 0 0
184 2 19.25 29.75 -12.25 0 0 0
187 1 24.5 31.5 -14 0 0 0
192 2 26.25 29.75 -12.25 0 0 0
195 1 31.5 31.5 -14 0 0 0
200 2 33.25 29.75 -12.25 0 0 0
166 2 1.75 33.25 -12.25 0 0 0
174 2 8.75 33.25 -12.25 0 0 0
182 2 15.75 33.25 -12.25 0 0 0
190 2 22.75 33.25 -12.25 0 0 0
198 2 29.75 33.25 -12.25 0 0 0
7 2 1.7499999999999825 1.7499999999999374 -8.850048608648898 0 0 0
2 1 3.5 0 -10.5 0 0 0
10 1 10.5 0 -10.5 0 0 0
15 2 8.749999999999957 1.750000000000036 -8.850048608648873 0 0 0
23 2 15.75000000000028 1.7500000000001394 -8.850048608648699 0 0 0
18 1 17.5 0 -10.5 0 0 0
31 2 22.749999999999858 1.7499999999999718 -8.850048608648718 0 0 0
26 1 24.5 0 -10.5 0 0 0
34 1 31.5 0 -10.5 0 0 0
39 2 29.749999999999964 1.749999999999962 -8.850048608648805 0 0 0
4 1 0 3.5 -10.5 0 0 0
5 2 5.250000000000156 5.250000000000112 -8.850048608648619 0 0 0
12 1 7 3.5 -10.5 0 0 0
13 2 12.249999999999998 5.250000000000121 -8.85004860864876 0 0 0
20 1 14 3.5 -10.5 0 0 0
21 2 19.249999999999908 5.249999999999802 -8.850048608648502 0 0 0
28 1 21 3.5 -10.5 0 0 0
29 2 26.249999999999986 5.250000000000033 -8.850048608648915 0 0 0
36 1 28 3.5 -10.5 0 0 0
37 2 33.250000000000014 5.250000000000046 -8.85004860864882 0 0 0
42 1 3.5 7 -10.5 0 0 0
50 1 10.5 7 -10.5 0 0 0
58 1 17.5 7 -10.5 0 0 0
66 1 24.5 7 -10.5 0 0 0
74 1 31.5 7 -10.5 0 0 0
44 1 0 10.5 -10.5 0 0 0
47 2 1.7500000000000087 8.750000000000028 -8.850048608648711 0 0 0
52 1 7 10.5 -10.5 0 0 0
55 2 8.7499999999999 8.7499999999998 -8.850048608648661 0 0 0
60 1 14 10.5 -10.5 0 0 0
63 2 15.749999999999925 8.750000000000048 -8.850048608648642 0 0 0
68 1 21 10.5 -10.5 0 0 0
71 2 22.750000000000007 8.74999999999993 -8.850048608648969 0 0 0
76 1 28 10.5 -10.5 0 0 0
79 2 29.750000000000128 8.750000000000114 -8.850048608648601 0 0 0
45 2 5.2499999999999165 12.249999999999966 -8.850048608648818 0 0 0
53 2 12.250000000000163 12.250000000000028 -8.850048608648825 0 0 0
61 2 19.249999999999904 12.250000000000023 -8.850048608648773 0 0 0
69 2 26.25000000000018 12.250000000000151 -8.850048608648637 0 0 0
77 2 33.24999999999983 12.249999999999835 -8.850048608648772 0 0 0
87 2 1.7500000000001492 15.75000000000015 -8.850048608648772 0 0 0
82 1 3.5 14 -10.5 0 0 0
90 1 10.5 14 -10.5 0 0 0
95 2 8.750000000000036 15.75000000000015 -8.850048608648773 0 0 0
103 2 15.750000000000028 15.749999999999895 -8.850048608648622 0 0 0
98 1 17.5 14 -10.5 0 0 0
111 2 22.750000000000064 15.750000000000142 -8.850048608648631 0 0 0
106 1 24.5 14 -10.5 0 0 0
114 1 31.5 14 -10.5 0 0 0
119 2 29.749999999999808 15.749999999999801 -8.850048608648727 0 0 0
84 1 0 17.5 -10.5 0 0 0
92 1 7 17.5 -10.5 0 0 0
100 1 14 17.5 -10.5 0 0 0
108 1 21 17.5 -10.5 0 0 0
116 1 28 17.5 -10.5 0 0 0
85 2 5.249999999999979 19.249999999999925 -8.850048608648546 0 0 0
122 1 3.5 21 -10.5 0 0 0
130 1 10.5 21 -10.5 0 0 0
93 2 12.249999999999872 19.24999999999999 -8.850048608648684 0 0 0
138 1 17.5 21 -10.5 0 0 0
101 2 19.250000000000004 19.249999999999893 -8.85004860864887 0 0 0
109 2 26.24999999999992 19.249999999999947 -8.850048608648578 0 0 0
146 1 24.5 21 -10.5 0 0 0
154 1 31.5 21 -10.5 0 0 0
117 2 33.25000000000014 19.250000000000124 -8.850048608648837 0 0 0
127 2 1.7499999999999454 22.749999999999954 -8.850048608648677 0 0 0
135 2 8.749999999999948 22.749999999999854 -8.850048608648924 0 0 0
143 2 15.749999999999954 22.75000000000004 -8.850048608648887 0 0 0
151 2 22.750000000000128 22.750000000000078 -8.850048608648743 0 0 0
159 2 29.749999999999954 22.749999999999975 -8.850048608648821 0 0 0
124 1 0 24.5 -10.5 0 0 0
125 2 5.249999999999957 26.250000000000046 -8.850048608648818 0 0 0
132 1 7 24.5 -10.5 0 0 0
133 2 12.250000000000163 26.250000000000117 -8.850048608648821 0 0 0
140 1 14 24.5 -10.5 0 0 0
141 2 19.250000000000078 26.25000000000009 -8.85004860864868 0 0 0
148 1 21 24.5 -10.5 0 0 0
149 2 26.24999999999988 26.249999999999897 -8.850048608648754 0 0 0
156 1 28 24.5 -10.5 0 0 0
157 2 33.25000000000006 26.25000000000008 -8.85004860864876 0 0 0
162 1 3.5 28 -10.5 0 0 0
170 1 10.5 28 -10.5 0 0 0
178 1 17.5 28 -10.5 0 0 0
186 1 24.5 28 -10.5 0 0 0
194 1 31.5 28 -10.5 0 0 0
164 1 0 31.5 -10.5 0 0 0
167 2 1.750000000000014 29.750000000000004 -8.850048608648542 0 0 0
172 1 7 31.5 -10.5 0 0 0
175 2 8.75000000000007 29.750000000000114 -8.85004860864858 0 0 0
180 1 14 31.5 -10.5 0 0 0
183 2 15.749999999999863 29.749999999999908 -8.85004860864871 0 0 0
188 1 21 31.5 -10.5 0 0 0
191 2 22.749999999999957 29.7499999999999 -8.85004860864868 0 0 0
196 1 28 31.5 -10.5 0 0 0
199 2 29.75000000000011 29.75000000000012 -8.850048608648754 0 0 0
165 2 5.249999999999941 33.24999999999992 -8.850048608648693 0 0 0
173 2 12.249999999999867 33.249999999999794 -8.850048608648772 0 0 0
181 2 19.250000000000036 33.250000000000156 -8.850048608648782 0 0 0
189 2 26.25000000000007 33.249999999999986 -8.850048608648772 0 0 0
197 2 33.249999999999964 33.249999999999915 -8.850048608648635 0 0 0
201 1 9.237055564881302e-14 34.999999999999936 -7.197562814861784 0 -1 0
209 1 7.000000000000034 34.99999999999998 -7.197562814861791 0 -1 0
217 1 14.000000000000117 34.99999999999989 -7.197562814861918 0 -1 0
225 1 20.999999999999808 1.9184653865522705e-13 -7.197562814861689 0 0 0
233 1 28.000000000000068 34.99999999999992 -7.197562814861751 0 -1 0
203 1 3.5000000000000044 3.499999999999966 -7.19756281486184 0 0 0
211 1 10.499999999999797 3.5000000000002 -7.1975628148618185 0 0 0
219 1 17.500000000000117 3.499999999999855 -7.1975628148615485 0 0 0
227 1 24.499999999999943 3.500000000000071 -7.197562814861833 0 0 0
235 1 31.499999999999943 3.5000000000000533 -7.19756281486183 0 0 0
241 1 34.99999999999992 7.000000000000061 -7.197562814861774 -1 0 0
249 1 7.000000000000047 6.9999999999999565 -7.197562814861585 0 0 0
257 1 13.999999999999941 7.000000000000041 -7.197562814861702 0 0 0
265 1 21.000000000000085 6.999999999999953 -7.197562814861794 0 0 0
273 1 27.999999999999996 6.99999999999997 -7.19756281486181 0 0 0
243 1 3.5000000000000635 10.499999999999932 -7.197562814861733 0 0 0
251 1 10.500000000000165 10.49999999999986 -7.197562814861851 0 0 0
259 1 17.499999999999865 10.500000000000135 -7.1975628148617234 0 0 0
267 1 24.500000000000032 10.499999999999934 -7.197562814861867 0 0 0
275 1 31.499999999999982 10.500000000000037 -7.197562814861625 0 0 0
281 1 1.012824995611762e-14 13.999999999999963 -7.197562814861896 0 0 0
289 1 6.999999999999864 14.000000000000131 -7.197562814861845 0 0 0
297 1 14.000000000000119 13.999999999999861 -7.197562814861696 0 0 0
305 1 20.999999999999872 14.000000000000124 -7.197562814861778 0 0 0
313 1 28.000000000000014 13.999999999999995 -7.197562814861584 0 0 0
283 1 3.499999999999958 17.500000000000025 -7.197562814861627 0 0 0
291 1 10.499999999999886 17.5000000000001 -7.197562814861696 0 0 0
299 1 17.50000000000013 17.499999999999904 -7.197562814861753 0 0 0
307 1 24.500000000000004 17.49999999999999 -7.197562814861629 0 0 0
315 1 31.499999999999982 17.50000000000002 -7.197562814861908 0 0 0
321 1 9.120034538556786e-14 20.999999999999904 -7.19756281486167 0 0 0
329 1 7.000000000000128 20.999999999999904 -7.197562814861742 0 0 0
337 1 13.999999999999972 21.00000000000006 -7.197562814861806 0 0 0
345 1 21.000000000000128 20.999999999999854 -7.197562814861858 0 0 0
353 1 27.999999999999947 21.000000000000075 -7.197562814861742 0 0 0
323 1 3.4999999999999534 24.500000000000064 -7.197562814861787 0 0 0
331 1 10.50000000000009 24.499999999999893 -7.197562814861926 0 0 0
339 1 17.499999999999876 24.500000000000107 -7.197562814861813 0 0 0
347 1 24.499999999999975 24.500000000000018 -7.197562814861674 0 0 0
355 1 31.50000000000001 24.499999999999968 -7.197562814861808 0 0 0
361 1 34.99999999999994 28.000000000000025 -7.1975628148616755 -1 0 0
369 1 6.999999999999815 28.00000000000016 -7.197562814861768 0 0 0
377 1 13.999999999999941 28.000000000000036 -7.197562814861662 0 0 0
385 1 21.000000000000068 27.999999999999936 -7.197562814861657 0 0 0
393 1 27.99999999999996 28.000000000000043 -7.1975628148618505 0 0 0
363 1 3.5000000000000555 31.499999999999964 -7.197562814861664 0 0 0
371 1 10.500000000000062 31.499999999999947 -7.197562814861615 0 0 0
379 1 17.49999999999999 31.500000000000032 -7.197562814861843 0 0 0
387 1 24.50000000000007 31.499999999999932 -7.1975628148617865 0 0 0
395 1 31.500000000000032 31.499999999999964 -7.1975628148616595 0 0 0
202 1 3.499999999999805 7.834886380370253e-14 -3.89297632478481 0 0 0
208 2 5.250000000000057 1.75000000000002 -5.5452738964181005 0 0 0
210 1 10.49999999999992 34.99999999999978 -3.89297632478463 0 -1 0
216 2 12.249999999999938 1.7500000000000167 -5.545273896418113 0 0 0
218 1 17.50000000000005 3.2350494051807783e-13 -3.892976324785032 0 0 0
224 2 19.249999999999975 1.7500000000000961 -5.545273896418346 0 0 0
226 1 24.500000000000117 34.999999999999886 -3.8929763247846867 0 -1 0
232 2 26.250000000000046 1.7500000000000087 -5.545273896418196 0 0 0
234 1 31.499999999999833 34.999999999999986 -3.892976324784812 0 -1 0
240 2 33.25000000000001 1.7499999999999802 -5.545273896418164 0 0 0
204 1 5.684341886080802e-14 3.499999999999963 -3.892976324784653 0 0 0
206 2 1.7499999999999767 5.250000000000045 -5.54527389641816 0 0 0
212 1 7.000000000000122 3.5000000000001172 -3.892976324784892 0 0 0
214 2 8.749999999999867 5.250000000000105 -5.54527389641824 0 0 0
220 1 14.000000000000236 3.5000000000000897 -3.8929763247847013 0 0 0
222 2 15.750000000000092 5.249999999999948 -5.54527389641848 0 0 0
228 1 20.999999999999826 3.4999999999998868 -3.892976324785064 0 0 0
230 2 22.749999999999968 5.249999999999981 -5.545273896418082 0 0 0
236 1 28.00000000000006 3.4999999999999645 -3.892976324784709 0 0 0
238 2 29.74999999999999 5.250000000000035 -5.545273896418126 0 0 0
242 1 3.500000000000132 7.000000000000086 -3.8929763247848874 0 0 0
250 1 10.499999999999924 6.999999999999944 -3.8929763247850238 0 0 0
258 1 17.49999999999996 6.999999999999888 -3.892976324784862 0 0 0
266 1 24.499999999999904 7.000000000000037 -3.8929763247847355 0 0 0
274 1 31.500000000000103 7.000000000000002 -3.892976324784887 0 0 0
244 1 34.99999999999987 10.499999999999948 -3.8929763247848665 -1 0 0
248 2 5.250000000000079 8.749999999999918 -5.545273896418379 0 0 0
252 1 6.999999999999779 10.499999999999872 -3.892976324784745 0 0 0
256 2 12.250000000000066 8.749999999999938 -5.545273896418105 0 0 0
260 1 13.999999999999993 10.50000000000013 -3.8929763247850104 0 0 0
264 2 19.24999999999997 8.75000000000004 -5.545273896418255 0 0 0
268 1 21.000000000000032 10.4999999999999 -3.8929763247846148 0 0 0
272 2 26.25000000000006 8.749999999999961 -5.545273896418076 0 0 0
276 1 28.000000000000107 10.500000000000155 -3.892976324784939 0 0 0
280 2 33.249999999999915 8.750000000000039 -5.545273896418311 0 0 0
246 2 1.7500000000001017 12.249999999999963 -5.545273896418133 0 0 0
254 2 8.749999999999963 12.249999999999954 -5.545273896418115 0 0 0
262 2 15.75000000000001 12.250000000000023 -5.545273896418197 0 0 0
270 2 22.749999999999954 12.250000000000048 -5.545273896418139 0 0 0
278 2 29.749999999999957 12.249999999999979 -5.545273896418447 0 0 0
282 1 3.5000000000000977 14.000000000000043 -3.892976324784787 0 0 0
288 2 5.2499999999998765 15.750000000000112 -5.545273896418209 0 0 0
290 1 10.500000000000115 14.000000000000103 -3.892976324784644 0 0 0
296 2 12.250000000000032 15.750000000000043 -5.545273896418387 0 0 0
298 1 17.500000000000004 13.999999999999925 -3.89297632478503 0 0 0
304 2 19.249999999999964 15.750000000000002 -5.54527389641813 0 0 0
306 1 24.500000000000163 14.000000000000133 -3.8929763247848688 0 0 0
312 2 26.249999999999996 15.749999999999988 -5.545273896418462 0 0 0
314 1 31.49999999999986 13.999999999999758 -3.892976324784862 0 0 0
320 2 33.25000000000006 15.750000000000059 -5.545273896417993 0 0 0
284 1 1.7831214693119027e-13 17.500000000000195 -3.8929763247847884 0 0 0
292 1 7.000000000000116 17.49999999999995 -3.892976324785035 0 0 0
300 1 13.999999999999902 17.50000000000004 -3.8929763247847626 0 0 0
308 1 20.999999999999968 17.500000000000004 -3.892976324784957 0 0 0
316 1 27.999999999999844 17.499999999999904 -3.892976324784926 0 0 0
286 2 1.7500000000000042 19.24999999999994 -5.545273896418344 0 0 0
322 1 3.499999999999817 20.999999999999936 -3.892976324784958 0 0 0
294 2 8.750000000000027 19.25000000000001 -5.545273896418234 0 0 0
330 1 10.499999999999927 20.999999999999883 -3.892976324784878 0 0 0
302 2 15.750000000000004 19.24999999999996 -5.545273896418249 0 0 0
338 1 17.499999999999847 21.00000000000003 -3.8929763247845983 0 0 0
310 2 22.7500000000001 19.249999999999876 -5.545273896418208 0 0 0
346 1 24.50000000000006 20.99999999999996 -3.8929763247849585 0 0 0
318 2 29.74999999999998 19.2500000000001 -5.545273896418107 0 0 0
354 1 31.49999999999999 21.000000000000092 -3.8929763247846947 0 0 0
328 2 5.250000000000005 22.74999999999992 -5.545273896418251 0 0 0
336 2 12.25000000000004 22.749999999999925 -5.545273896418004 0 0 0
344 2 19.249999999999996 22.75000000000002 -5.545273896418144 0 0 0
352 2 26.249999999999964 22.750000000000036 -5.545273896418293 0 0 0
360 2 33.25000000000003 22.749999999999893 -5.545273896418214 0 0 0
324 1 34.999999999999986 24.500000000000043 -3.8929763247848608 -1 0 0
326 2 1.749999999999971 26.25000000000009 -5.545273896418234 0 0 0
332 1 6.9999999999998845 24.499999999999986 -3.8929763247845752 0 0 0
334 2 8.74999999999996 26.25000000000009 -5.545273896418143 0 0 0
340 1 14.000000000000195 24.49999999999994 -3.892976324784825 0 0 0
342 2 15.74999999999991 26.250000000000085 -5.545273896418215 0 0 0
348 1 21.000000000000036 24.50000000000029 -3.892976324784799 0 0 0
350 2 22.750000000000043 26.25000000000003 -5.545273896418329 0 0 0
356 1 28.00000000000006 24.499999999999755 -3.8929763247847844 0 0 0
358 2 29.749999999999993 26.25000000000002 -5.545273896418105 0 0 0
362 1 3.5000000000002 27.999999999999908 -3.8929763247849682 0 0 0
370 1 10.500000000000144 28.000000000000252 -3.8929763247848355 0 0 0
378 1 17.50000000000011 27.999999999999808 -3.892976324784848 0 0 0
386 1 24.49999999999975 28.000000000000068 -3.892976324784928 0 0 0
394 1 31.500000000000178 28.000000000000057 -3.8929763247848497 0 0 0
364 1 34.999999999999915 31.500000000000014 -3.8929763247850118 -1 0 0
368 2 5.249999999999938 29.750000000000068 -5.5452738964182275 0 0 0
372 1 7.000000000000058 31.499999999999886 -3.8929763247850233 0 0 0
376 2 12.250000000000039 29.750000000000043 -5.545273896418385 0 0 0
380 1 13.999999999999707 31.5 -3.8929763247848896 0 0 0
384 2 19.250000000000014 29.7499999999999 -5.545273896418257 0 0 0
388 1 21.00000000000014 31.49999999999979 -3.8929763247847706 0 0 0
392 2 26.249999999999975 29.749999999999986 -5.545273896418068 0 0 0
396 1 27.99999999999994 31.500000000000174 -3.892976324784864 0 0 0
400 2 33.24999999999998 29.750000000000007 -5.545273896418351 0 0 0
366 2 1.7500000000000633 33.2499999999999 -5.545273896418268 0 0 0
374 2 8.75000000000005 33.2499999999999 -5.5452738964182835 0 0 0
382 2 15.75000000000002 33.24999999999992 -5.545273896417979 0 0 0
390 2 22.749999999999968 33.25000000000008 -5.545273896418308 0 0 0
398 2 29.75000000000004 33.249999999999936 -5.5452738964182835 0 0 0
207 2 1.7499999999999993 1.7500000000000322 -2.2406792520936456 0 0 0
215 2 8.750000000000005 1.7500000000000875 -2.2406792520937993 0 0 0
223 2 15.749999999999915 1.7499999999997675 -2.240679252093641 0 0 0
231 2 22.74999999999998 1.7500000000001157 -2.240679252093838 0 0 0
239 2 29.75000000000003 1.7500000000000338 -2.2406792520936905 0 0 0
205 2 5.249999999999899 5.249999999999809 -2.240679252093791 0 0 0
213 2 12.249999999999856 5.250000000000014 -2.2406792520937584 0 0 0
221 2 19.250000000000167 5.249999999999968 -2.240679252093735 0 0 0
229 2 26.249999999999975 5.2500000000000355 -2.240679252093847 0 0 0
237 2 33.24999999999996 5.249999999999935 -2.240679252093752 0 0 0
247 2 1.7499999999999958 8.75000000000001 -2.2406792520937313 0 0 0
255 2 8.750000000000199 8.750000000000103 -2.240679252093819 0 0 0
263 2 15.749999999999913 8.750000000000126 -2.2406792520937993 0 0 0
271 2 22.750000000000114 8.750000000000005 -2.240679252093682 0 0 0
279 2 29.74999999999996 8.749999999999947 -2.2406792520938184 0 0 0
245 2 5.250000000000042 12.250000000000117 -2.240679252093717 0 0 0
253 2 12.249999999999986 12.24999999999981 -2.2406792520937087 0 0 0
261 2 19.249999999999968 12.25000000000008 -2.24067925209383 0 0 0
269 2 26.24999999999987 12.249999999999815 -2.240679252093718 0 0 0
277 2 33.25000000000013 12.250000000000119 -2.240679252093662 0 0 0
287 2 1.7499999999998512 15.749999999999845 -2.2406792520938543 0 0 0
295 2 8.749999999999837 15.749999999999957 -2.2406792520936474 0 0 0
303 2 15.750000000000105 15.749999999999934 -2.240679252093818 0 0 0
311 2 22.7499999999999 15.750000000000005 -2.2406792520938037 0 0 0
319 2 29.750000000000117 15.750000000000117 -2.240679252093733 0 0 0
285 2 5.250000000000101 19.250000000000004 -2.2406792520938397 0 0 0
293 2 12.249999999999996 19.250000000000195 -2.2406792520937273 0 0 0
301 2 19.25000000000009 19.24999999999999 -2.240679252093781 0 0 0
309 2 26.250000000000046 19.250000000000075 -2.2406792520936984 0 0 0
317 2 33.24999999999989 19.249999999999936 -2.2406792520938668 0 0 0
327 2 1.7500000000000426 22.7500000000001 -2.2406792520936984 0 0 0
335 2 8.750000000000156 22.74999999999999 -2.240679252093778 0 0 0
343 2 15.74999999999992 22.750000000000043 -2.2406792520936483 0 0 0
351 2 22.7499999999999 22.749999999999886 -2.2406792520937993 0 0 0
359 2 29.750000000000092 22.75000000000001 -2.2406792520936816 0 0 0
325 2 5.249999999999968 26.250000000000075 -2.2406792520936323 0 0 0
333 2 12.249999999999943 26.249999999999805 -2.2406792520938366 0 0 0
341 2 19.249999999999975 26.249999999999996 -2.2406792520936047 0 0 0
349 2 26.25000000000003 26.25000000000012 -2.240679252093948 0 0 0
357 2 33.24999999999989 26.24999999999987 -2.24067925209369 0 0 0
367 2 1.7500000000000366 29.74999999999994 -2.2406792520938823 0 0 0
375 2 8.74999999999987 29.749999999999947 -2.2406792520936847 0 0 0
383 2 15.750000000000018 29.750000000000085 -2.2406792520939485 0 0 0
391 2 22.750000000000124 29.74999999999995 -2.240679252093592 0 0 0
399 2 29.749999999999915 29.749999999999996 -2.2406792520938748 0 0 0
365 2 5.250000000000044 33.25000000000003 -2.2406792520938885 0 0 0
373 2 12.250000000000192 33.25000000000012 -2.240679252093673 0 0 0
381 2 19.249999999999908 33.250000000000064 -2.2406792520938583 0 0 0
389 2 26.250000000000014 33.249999999999886 -2.2406792520936225 0 0 0
397 2 33.25000000000006 33.25000000000014 -2.240679252093734 0 0 0
401 1 1.6866562623595743e-13 8.127177349444946e-14 -0.588382154393295 0 0 0
408 2 5.249999999999888 1.7500000000000797 1.063914942064539 0 0 0
409 1 7.000000000000026 1.3500311979441904e-13 -0.588382154393229 0 0 0
416 2 12.250000000000139 1.7499999999999645 1.0639149420644225 0 0 0
417 1 13.999999999999895 1.3403898391838101e-14 -0.5883821543932445 0 0 0
424 2 19.249999999999915 1.750000000000041 1.0639149420645957 0 0 0
425 1 21.00000000000014 34.99999999999992 -0.588382154393137 0 -1 0
432 2 26.250000000000064 1.7499999999999079 1.0639149420645804 0 0 0
433 1 27.999999999999915 7.815970093361102e-14 -0.5883821543934679 0 0 0
440 2 33.25000000000006 1.7500000000000084 1.063914942064356 0 0 0
406 2 1.750000000000123 5.249999999999992 1.0639149420644773 0 0 0
403 1 3.4999999999999045 3.499999999999889 -0.5883821543932964 0 0 0
411 1 10.500000000000075 3.499999999999832 -0.5883821543932235 0 0 0
414 2 8.750000000000055 5.2499999999999085 1.0639149420646123 0 0 0
422 2 15.75000000000007 5.249999999999977 1.063914942064756 0 0 0
419 1 17.499999999999837 3.4999999999999956 -0.5883821543933576 0 0 0
430 2 22.749999999999932 5.250000000000055 1.063914942064463 0 0 0
427 1 24.500000000000128 3.5000000000000138 -0.5883821543932499 0 0 0
435 1 31.499999999999986 3.499999999999977 -0.5883821543933289 0 0 0
438 2 29.75000000000006 5.2499999999999405 1.0639149420645506 0 0 0
441 1 34.99999999999994 6.999999999999905 -0.5883821543932539 -1 0 0
449 1 6.999999999999981 7.000000000000032 -0.5883821543933603 0 0 0
457 1 14.000000000000018 6.999999999999911 -0.5883821543931727 0 0 0
465 1 21.00000000000007 7.000000000000228 -0.5883821543933306 0 0 0
473 1 27.99999999999991 6.999999999999926 -0.5883821543932052 0 0 0
443 1 3.5000000000000404 10.500000000000131 -0.5883821543933233 0 0 0
448 2 5.249999999999888 8.750000000000023 1.0639149420647185 0 0 0
451 1 10.499999999999936 10.500000000000151 -0.5883821543931496 0 0 0
456 2 12.24999999999997 8.750000000000103 1.063914942064474 0 0 0
459 1 17.500000000000167 10.49999999999999 -0.5883821543932232 0 0 0
464 2 19.25000000000001 8.749999999999908 1.06391494206465 0 0 0
467 1 24.49999999999984 10.499999999999918 -0.588382154393278 0 0 0
472 2 26.249999999999897 8.7500000000001 1.0639149420644463 0 0 0
475 1 31.50000000000004 10.500000000000066 -0.5883821543933119 0 0 0
480 2 33.25000000000003 8.750000000000036 1.0639149420646037 0 0 0
446 2 1.7499999999998928 12.249999999999973 1.0639149420644574 0 0 0
454 2 8.750000000000014 12.250000000000098 1.063914942064463 0 0 0
462 2 15.749999999999934 12.249999999999961 1.063914942064544 0 0 0
470 2 22.750000000000057 12.249999999999892 1.0639149420645173 0 0 0
478 2 29.750000000000096 12.250000000000064 1.0639149420646823 0 0 0
481 1 34.99999999999999 14.000000000000052 -0.5883821543931727 -1 0 0
488 2 5.250000000000198 15.749999999999924 1.0639149420645189 0 0 0
489 1 7.000000000000067 13.999999999999837 -0.5883821543932445 0 0 0
496 2 12.249999999999952 15.749999999999988 1.063914942064697 0 0 0
497 1 13.999999999999856 13.999999999999995 -0.5883821543933039 0 0 0
504 2 19.250000000000046 15.750000000000044 1.0639149420645646 0 0 0
505 1 21.00000000000004 13.999999999999876 -0.5883821543932132 0 0 0
512 2 26.250000000000057 15.750000000000085 1.063914942064673 0 0 0
513 1 28.000000000000004 13.999999999999954 -0.5883821543932952 0 0 0
520 2 33.249999999999986 15.749999999999874 1.0639149420644936 0 0 0
483 1 3.4999999999998694 17.49999999999988 -0.5883821543932756 0 0 0
491 1 10.50000000000011 17.49999999999992 -0.5883821543933857 0 0 0
499 1 17.499999999999996 17.500000000000146 -0.5883821543932262 0 0 0
507 1 24.49999999999994 17.500000000000046 -0.5883821543932185 0 0 0
515 1 31.50000000000014 17.50000000000005 -0.588382154393132 0 0 0
486 2 1.7500000000000249 19.250000000000107 1.0639149420648044 0 0 0
521 1 34.99999999999993 20.9999999999999 -0.5883821543933923 -1 0 0
529 1 7.0000000000000115 21.000000000000274 -0.5883821543931894 0 0 0
494 2 8.749999999999973 19.24999999999992 1.0639149420645049 0 0 0
502 2 15.7499999999999 19.250000000000057 1.0639149420645828 0 0 0
537 1 14.00000000000015 21 -0.5883821543933722 0 0 0
545 1 20.999999999999943 20.999999999999915 -0.5883821543931318 0 0 0
510 2 22.750000000000043 19.250000000000078 1.0639149420646177 0 0 0
553 1 28.00000000000011 21.00000000000013 -0.5883821543933503 0 0 0
518 2 29.749999999999822 19.2499999999999 1.0639149420644407 0 0 0
528 2 5.249999999999911 22.75000000000008 1.06391494206464 0 0 0
536 2 12.250000000000034 22.74999999999992 1.0639149420643168 0 0 0
544 2 19.249999999999936 22.75000000000006 1.0639149420644227 0 0 0
552 2 26.25000000000003 22.749999999999783 1.0639149420647083 0 0 0
560 2 33.24999999999992 22.750000000000128 1.0639149420643847 0 0 0
526 2 1.750000000000169 26.249999999999996 1.0639149420644445 0 0 0
523 1 3.5000000000002167 24.499999999999986 -0.5883821543932757 0 0 0
531 1 10.499999999999824 24.50000000000003 -0.5883821543931784 0 0 0
534 2 8.74999999999986 26.25 1.0639149420645175 0 0 0
542 2 15.75000000000024 26.249999999999947 1.0639149420645444 0 0 0
539 1 17.500000000000004 24.49999999999989 -0.5883821543934552 0 0 0
550 2 22.74999999999982 26.250000000000156 1.0639149420645262 0 0 0
547 1 24.500000000000043 24.499999999999957 -0.5883821543932032 0 0 0
555 1 31.499999999999826 24.50000000000002 -0.5883821543933594 0 0 0
558 2 29.750000000000256 26.249999999999964 1.0639149420646319 0 0 0
561 1 34.99999999999983 27.99999999999999 -0.5883821543931947 -1 0 0
569 1 6.999999999999995 27.999999999999833 -0.5883821543932655 0 0 0
577 1 13.999999999999954 27.999999999999982 -0.5883821543932569 0 0 0
585 1 20.999999999999947 28.00000000000008 -0.5883821543934553 0 0 0
593 1 28.00000000000011 27.999999999999925 -0.5883821543930441 0 0 0
563 1 3.4999999999999725 31.50000000000008 -0.5883821543930338 0 0 0
568 2 5.250000000000107 29.74999999999981 1.063914942064561 0 0 0
571 1 10.500000000000108 31.50000000000008 -0.5883821543934968 0 0 0
576 2 12.249999999999966 29.750000000000167 1.0639149420647231 0 0 0
579 1 17.50000000000001 31.499999999999957 -0.5883821543929727 0 0 0
584 2 19.250000000000167 29.74999999999984 1.0639149420646314 0 0 0
587 1 24.499999999999908 31.500000000000092 -0.5883821543933689 0 0 0
592 2 26.24999999999987 29.750000000000185 1.0639149420644123 0 0 0
595 1 31.50000000000008 31.499999999999883 -0.5883821543932429 0 0 0
600 2 33.24999999999998 29.749999999999968 1.063914942064842 0 0 0
566 2 1.749999999999823 33.25000000000009 1.063914942064708 0 0 0
574 2 8.750000000000044 33.249999999999915 1.0639149420645881 0 0 0
582 2 15.749999999999783 33.25000000000014 1.063914942064463 0 0 0
590 2 22.750000000000117 33.24999999999982 1.063914942064615 0 0 0
598 2 29.749999999999865 33.250000000000036 1.0639149420644665 0 0 0
402 1 3.500000000000103 34.99999999999986 2.7162120381434764 0 -1 0
410 1 10.500000000000105 1.3500311979441904e-13 2.716212038143529 0 0 0
418 1 17.499999999999947 34.99999999999987 2.7162120381435653 0 -1 0
426 1 24.499999999999893 2.1179756448251117e-14 2.716212038143532 0 0 0
434 1 31.50000000000005 3.552713678800501e-14 2.716212038143679 0 0 0
404 1 34.999999999999964 3.5000000000000915 2.7162120381434884 -1 0 0
412 1 6.99999999999988 3.4999999999999982 2.7162120381436607 0 0 0
420 1 13.999999999999917 3.4999999999999805 2.7162120381434662 0 0 0
428 1 21.00000000000002 3.500000000000004 2.716212038143744 0 0 0
436 1 27.999999999999964 3.5000000000000364 2.7162120381435804 0 0 0
442 1 3.499999999999955 6.99999999999991 2.7162120381437354 0 0 0
450 1 10.500000000000053 7.0000000000000835 2.7162120381436425 0 0 0
458 1 17.499999999999993 7.0000000000000435 2.7162120381436305 0 0 0
466 1 24.50000000000009 6.999999999999969 2.7162120381435586 0 0 0
474 1 31.49999999999997 7.000000000000019 2.716212038143617 0 0 0
444 1 6.13726872389955e-14 10.499999999999998 2.7162120381436243 0 0 0
452 1 7.000000000000204 10.500000000000053 2.716212038143491 0 0 0
460 1 14.00000000000001 10.499999999999897 2.716212038143654 0 0 0
468 1 20.999999999999947 10.500000000000053 2.7162120381434702 0 0 0
476 1 28.00000000000002 10.499999999999948 2.716212038143604 0 0 0
482 1 3.4999999999999063 14.000000000000007 2.716212038143483 0 0 0
490 1 10.499999999999913 13.999999999999911 2.716212038143476 0 0 0
498 1 17.499999999999993 14.000000000000004 2.7162120381436865 0 0 0
506 1 24.499999999999936 13.999999999999991 2.7162120381435653 0 0 0
514 1 31.50000000000004 14.000000000000117 2.7162120381435817 0 0 0
484 1 34.99999999999987 17.49999999999988 2.7162120381434947 -1 0 0
492 1 6.999999999999892 17.50000000000007 2.7162120381437753 0 0 0
500 1 14.000000000000034 17.499999999999996 2.716212038143609 0 0 0
508 1 21.0000000000001 17.50000000000006 2.7162120381435377 0 0 0
516 1 28.000000000000018 17.50000000000005 2.7162120381437207 0 0 0