LAMMPS data file via write_data, version 29 Sep 2021, timestep = 331

1250 atoms
2 atom types

0 37.5 xlo xhi
0 37.5 ylo yhi
-15 60 zlo zhi

Masses

1 112.411
2 127.6

Atoms # atomic

1 1 0 0 -15 0 0 0
8 2 5.625 1.875 -13.125 0 0 0
9 1 7.5 0 -15 0 0 0
16 2 13.125 1.875 -13.125 0 0 0
17 1 15 0 -15 0 0 0
24 2 20.625 1.875 -13.125 0 0 0
25 1 22.5 0 -15 0 0 0
32 2 28.125 1.875 -13.125 0 0 0
33 1 30 0 -15 0 0 0
40 2 35.625 1.875 -13.125 0 0 0
3 1 3.75 3.75 -15 0 0 0
11 1 11.25 3.75 -15 0 0 0
19 1 18.75 3.75 -15 0 0 0
27 1 26.25 3.75 -15 0 0 0
35 1 33.75 3.75 -15 0 0 0
6 2 1.875 5.625 -13.125 0 0 0
41 1 0 7.5 -15 0 0 0
49 1 7.5 7.5 -15 0 0 0
14 2 9.375 5.625 -13.125 0 0 0
57 1 15 7.5 -15 0 0 0
22 2 16.875 5.625 -13.125 0 0 0
65 1 22.5 7.5 -15 0 0 0
30 2 24.375 5.625 -13.125 0 0 0
38 2 31.875 5.625 -13.125 0 0 0
73 1 30 7.5 -15 0 0 0
48 2 5.625 9.375 -13.125 0 0 0
56 2 13.125 9.375 -13.125 0 0 0
64 2 20.625 9.375 -13.125 0 0 0
72 2 28.125 9.375 -13.125 0 0 0
80 2 35.625 9.375 -13.125 0 0 0
46 2 1.875 13.125 -13.125 0 0 0
43 1 3.75 11.25 -15 0 0 0
54 2 9.375 13.125 -13.125 0 0 0
51 1 11.25 11.25 -15 0 0 0
62 2 16.875 13.125 -13.125 0 0 0
59 1 18.75 11.25 -15 0 0 0
67 1 26.25 11.25 -15 0 0 0
70 2 24.375 13.125 -13.125 0 0 0
78 2 31.875 13.125 -13.125 0 0 0
75 1 33.75 11.25 -15 0 0 0
81 1 0 15 -15 0 0 0
89 1 7.5 15 -15 0 0 0
97 1 15 15 -15 0 0 0
105 1 22.5 15 -15 0 0 0
113 1 30 15 -15 0 0 0
88 2 5.625 16.875 -13.125 0 0 0
96 2 13.125 16.875 -13.125 0 0 0
104 2 20.625 16.875 -13.125 0 0 0
112 2 28.125 16.875 -13.125 0 0 0
120 2 35.625 16.875 -13.125 0 0 0
86 2 1.875 20.625 -13.125 0 0 0
83 1 3.75 18.75 -15 0 0 0
94 2 9.375 20.625 -13.125 0 0 0
91 1 11.25 18.75 -15 0 0 0
102 2 16.875 20.625 -13.125 0 0 0
99 1 18.75 18.75 -15 0 0 0
107 1 26.25 18.75 -15 0 0 0
110 2 24.375 20.625 -13.125 0 0 0
118 2 31.875 20.625 -13.125 0 0 0
115 1 33.75 18.75 -15 0 0 0
121 1 0 22.5 -15 0 0 0
129 1 7.5 22.5 -15 0 0 0
137 1 15 22.5 -15 0 0 0
145 1 22.5 22.5 -15 0 0 0
153 1 30 22.5 -15 0 0 0
123 1 3.75 26.25 -15 0 0 0
128 2 5.625 24.375 -13.125 0 0 0
131 1 11.25 26.25 -15 0 0 0
136 2 13.125 24.375 -13.125 0 0 0
139 1 18.75 26.25 -15 0 0 0
144 2 20.625 24.375 -13.125 0 0 0
147 1 26.25 26.25 -15 0 0 0
152 2 28.125 24.375 -13.125 0 0 0
155 1 33.75 26.25 -15 0 0 0
160 2 35.625 24.375 -13.125 0 0 0
126 2 1.875 28.125 -13.125 0 0 0
134 2 9.375 28.125 -13.125 0 0 0
142 2 16.875 28.125 -13.125 0 0 0
150 2 24.375 28.125 -13.125 0 0 0
158 2 31.875 28.125 -13.125 0 0 0
161 1 0 30 -15 0 0 0
168 2 5.625 31.875 -13.125 0 0 0
169 1 7.5 30 -15 0 0 0
176 2 13.125 31.875 -13.125 0 0 0
177 1 15 30 -15 0 0 0
184 2 20.625 31.875 -13.125 0 0 0
185 1 22.5 30 -15 0 0 0
192 2 28.125 31.875 -13.125 0 0 0
193 1 30 30 -15 0 0 0
200 2 35.625 31.875 -13.125 0 0 0
163 1 3.75 33.75 -15 0 0 0
171 1 11.25 33.75 -15 0 0 0
179 1 18.75 33.75 -15 0 0 0
187 1 26.25 33.75 -15 0 0 0
195 1 33.75 33.75 -15 0 0 0
166 2 1.875 35.625 -13.125 0 0 0
174 2 9.375 35.625 -13.125 0 0 0
182 2 16.875 35.625 -13.125 0 0 0
190 2 24.375 35.625 -13.125 0 0 0
198 2 31.875 35.625 -13.125 0 0 0
2 1 3.75 0 -11.25 0 0 0
10 1 11.25 0 -11.25 0 0 0
18 1 18.75 0 -11.25 0 0 0
26 1 26.25 0 -11.25 0 0 0
34 1 33.75 0 -11.25 0 0 0
4 1 0 3.75 -11.25 0 0 0
12 1 7.5 3.75 -11.25 0 0 0
20 1 15 3.75 -11.25 0 0 0
28 1 22.5 3.75 -11.25 0 0 0
36 1 30 3.75 -11.25 0 0 0
42 1 3.75 7.5 -11.25 0 0 0
50 1 11.25 7.5 -11.25 0 0 0
58 1 18.75 7.5 -11.25 0 0 0
66 1 26.25 7.5 -11.25 0 0 0
74 1 33.75 7.5 -11.25 0 0 0
44 1 0 11.25 -11.25 0 0 0
52 1 7.5 11.25 -11.25 0 0 0
60 1 15 11.25 -11.25 0 0 0
68 1 22.5 11.25 -11.25 0 0 0
76 1 30 11.25 -11.25 0 0 0
82 1 3.75 15 -11.25 0 0 0
90 1 11.25 15 -11.25 0 0 0
98 1 18.75 15 -11.25 0 0 0
106 1 26.25 15 -11.25 0 0 0
114 1 33.75 15 -11.25 0 0 0
84 1 0 18.75 -11.25 0 0 0
92 1 7.5 18.75 -11.25 0 0 0
100 1 15 18.75 -11.25 0 0 0
108 1 22.5 18.75 -11.25 0 0 0
116 1 30 18.75 -11.25 0 0 0
122 1 3.75 22.5 -11.25 0 0 0
130 1 11.25 22.5 -11.25 0 0 0
138 1 18.75 22.5 -11.25 0 0 0
146 1 26.25 22.5 -11.25 0 0 0
154 1 33.75 22.5 -11.25 0 0 0
124 1 0 26.25 -11.25 0 0 0
132 1 7.5 26.25 -11.25 0 0 0
140 1 15 26.25 -11.25 0 0 0
148 1 22.5 26.25 -11.25 0 0 0
156 1 30 26.25 -11.25 0 0 0
162 1 3.75 30 -11.25 0 0 0
170 1 11.25 30 -11.25 0 0 0
178 1 18.75 30 -11.25 0 0 0
186 1 26.25 30 -11.25 0 0 0
194 1 33.75 30 -11.25 0 0 0
164 1 0 33.75 -11.25 0 0 0
172 1 7.5 33.75 -11.25 0 0 0
180 1 15 33.75 -11.25 0 0 0
188 1 22.5 33.75 -11.25 0 0 0
196 1 30 33.75 -11.25 0 0 0
7 2 1.875000018584561 1.875000016220288 -9.779710923771827 0 0 0
201 1 2.3590772002535232e-08 2.9566521675405966e-08 -8.302349566861468 0 0 0
209 1 7.500000022375532 2.4030513707005893e-08 -8.302349524747294 0 0 0
15 2 9.375000020733042 1.8750000138015208 -9.77971093515618 0 0 0
217 1 14.999999996567745 8.489521974297531e-09 -8.302349523693781 0 0 0
23 2 16.87500000143318 1.875000002003521 -9.77971094414268 0 0 0
225 1 22.499999990810874 9.424198310625798e-09 -8.302349504144432 0 0 0
31 2 24.375000004035407 1.875000000565471 -9.779710975726932 0 0 0
39 2 31.87500003530615 1.875000007665804 -9.779710944702707 0 0 0
233 1 30.00000000616513 4.1169269692359556e-08 -8.302349548355052 0 0 0
203 1 3.750000014704543 3.7500000158719042 -8.302349509387284 0 0 0
211 1 11.249999996924782 3.7500000202722608 -8.302349524933916 0 0 0
219 1 18.750000010145662 3.7499999825223784 -8.302349524663766 0 0 0
227 1 26.250000006699132 3.7500000038019965 -8.302349480799165 0 0 0
235 1 33.75000001496322 3.7500000218589298 -8.302349525831936 0 0 0
241 1 2.581342055917513e-08 7.500000015521737 -8.30234950093028 0 0 0
5 2 5.6250000164187925 5.625000008428605 -9.77971096874825 0 0 0
249 1 7.499999995700844 7.500000007825169 -8.302349465574967 0 0 0
13 2 13.125000003097888 5.624999987107113 -9.779710931024008 0 0 0
257 1 14.999999965721928 7.500000005281922 -8.302349531358159 0 0 0
21 2 20.62499998744885 5.624999995122734 -9.779710957694123 0 0 0
265 1 22.500000002937682 7.499999979232144 -8.302349520169058 0 0 0
29 2 28.125000009721788 5.625000004833815 -9.779711000155045 0 0 0
273 1 30.00000002492689 7.500000008175678 -8.302349503943677 0 0 0
37 2 35.62500002707582 5.6250000132360665 -9.779710968937355 0 0 0
47 2 1.8750000144966894 9.375000026755519 -9.779710964755898 0 0 0
55 2 9.375000008481113 9.374999999470898 -9.779710973281809 0 0 0
63 2 16.874999988986563 9.374999980015819 -9.779710942588089 0 0 0
71 2 24.374999987148446 9.374999999684416 -9.779710969185958 0 0 0
79 2 31.875000020204276 9.375000030412387 -9.779710964206066 0 0 0
243 1 3.750000025135097 11.249999991276933 -8.302349502592847 0 0 0
45 2 5.624999992297911 13.125000014653736 -9.779710945907203 0 0 0
53 2 13.12499998036252 13.12499998031366 -9.779710956271302 0 0 0
251 1 11.249999972436619 11.24999999594769 -8.30234946035816 0 0 0
61 2 20.624999978087754 13.12499997749539 -9.77971094118481 0 0 0
259 1 18.749999962812097 11.249999985171975 -8.30234953458702 0 0 0
267 1 26.24999998810664 11.249999991408536 -8.302349518000458 0 0 0
69 2 28.125000000658225 13.125000000466596 -9.77971096466196 0 0 0
275 1 33.75000002718523 11.249999999681012 -8.302349540502087 0 0 0
77 2 35.62500000865518 13.12500002697483 -9.77971091992526 0 0 0
281 1 1.1793908072377235e-08 14.999999991672192 -8.302349544949896 0 0 0
289 1 7.500000018874459 14.999999963243146 -8.302349513172848 0 0 0
297 1 14.999999973407473 14.999999965679244 -8.302349498431724 0 0 0
305 1 22.499999977837117 14.9999999579925 -8.302349537627233 0 0 0
313 1 29.99999999630427 14.99999998976925 -8.302349535559596 0 0 0
87 2 1.8749999959906043 16.87500000557681 -9.779710928258936 0 0 0
95 2 9.37499997913985 16.8749999887165 -9.779710936507799 0 0 0
103 2 16.87499996391925 16.874999970468675 -9.779710952035906 0 0 0
111 2 24.374999976387787 16.874999971119177 -9.779710957945685 0 0 0
119 2 31.875000010699726 16.874999997643553 -9.77971095947923 0 0 0
283 1 3.749999992510621 18.74999999947987 -8.302349537351933 0 0 0
85 2 5.624999998819071 20.62499999177974 -9.779710952182153 0 0 0
93 2 13.124999977309319 20.62499997517079 -9.779710935663276 0 0 0
291 1 11.24999998490036 18.74999997208833 -8.302349539947762 0 0 0
101 2 20.624999970192015 20.624999972766606 -9.779710948656236 0 0 0
299 1 18.749999971864405 18.74999996049787 -8.302349553340397 0 0 0
307 1 26.249999978975303 18.74999997059148 -8.302349539769272 0 0 0
109 2 28.12500000274293 20.624999977564357 -9.779710980705362 0 0 0
315 1 33.74999999845366 18.74999998461271 -8.302349531171535 0 0 0
117 2 35.62500001554375 20.625000005667406 -9.779710976127525 0 0 0
321 1 37.49999999786164 22.50000000293386 -8.302349496577689 -1 0 0
329 1 7.499999980651586 22.50000000780966 -8.302349522714001 0 0 0
337 1 14.9999999534647 22.499999980450127 -8.302349551198443 0 0 0
345 1 22.499999965868447 22.49999997248073 -8.302349564189347 0 0 0
353 1 29.99999999199678 22.500000001550813 -8.302349546586 0 0 0
127 2 1.875000007704267 24.375000008307648 -9.779710992627148 0 0 0
323 1 3.750000013338677 26.2500000102703 -8.302349482680862 0 0 0
135 2 9.375000003250435 24.37499998897642 -9.77971095499082 0 0 0
331 1 11.249999983394403 26.249999998200295 -8.302349514175837 0 0 0
143 2 16.87499997779065 24.37499998322192 -9.779710952428625 0 0 0
339 1 18.749999977461353 26.24999998140796 -8.30234954840614 0 0 0
151 2 24.374999979606738 24.3749999838148 -9.779710964713146 0 0 0
347 1 26.249999991709544 26.24999999299807 -8.302349546750774 0 0 0
159 2 31.875000025083775 24.3750000041671 -9.779710959840893 0 0 0
355 1 33.75000002297637 26.249999999594813 -8.302349551023955 0 0 0
125 2 5.625000008952953 28.12500001155047 -9.779710994243365 0 0 0
133 2 13.124999997930567 28.124999991513832 -9.77971095994674 0 0 0
141 2 20.624999978023595 28.12499999908701 -9.779710957808174 0 0 0
149 2 28.125000005617114 28.12500000646831 -9.7797109702464 0 0 0
157 2 35.62500001304886 28.125000017906096 -9.779710949503178 0 0 0
167 2 1.8750000109106415 31.875000033584815 -9.779710960498747 0 0 0
361 1 3.561318710812506e-08 30.00000000594293 -8.302349542974328 0 0 0
369 1 7.500000007818416 30.000000011439585 -8.302349493355246 0 0 0
175 2 9.37500002387725 31.875000015735246 -9.779710985559209 0 0 0
377 1 14.999999983187825 29.999999991944602 -8.30234951936705 0 0 0
183 2 16.875000003656474 31.875000007780635 -9.779710975816856 0 0 0
385 1 22.49999999945981 29.999999988428478 -8.302349549141004 0 0 0
191 2 24.374999996852768 31.87500001733749 -9.779710962128524 0 0 0
199 2 31.875000026016636 31.875000028167452 -9.779710938781088 0 0 0
393 1 30.0000000232659 30.00000001894185 -8.302349568749436 0 0 0
363 1 3.7500000295097644 33.75000001757663 -8.302349536764599 0 0 0
371 1 11.249999994558275 33.75000002765284 -8.302349509535357 0 0 0
379 1 18.749999983007623 33.75000000687253 -8.302349522016447 0 0 0
387 1 26.249999999620282 33.750000021011246 -8.302349548842951 0 0 0
395 1 33.7500000337599 33.750000032008565 -8.302349590862404 0 0 0
165 2 5.62500001900865 35.6250000372067 -9.779710958495707 0 0 0
173 2 13.12500002200523 35.625000015953084 -9.779710951597252 0 0 0
181 2 20.625000013988533 35.625000016700426 -9.779710967623158 0 0 0
189 2 28.125000023088432 35.6250000181726 -9.779710954784075 0 0 0
197 2 35.62500002958634 35.62500003493232 -9.779710903498861 0 0 0
208 2 5.6250000286645445 1.8750000450752504 -6.8260153646651185 0 0 0
216 2 13.125000009923694 1.8750000162789497 -6.826015365962386 0 0 0
224 2 20.625000012778592 1.8750000028410598 -6.826015435151205 0 0 0
232 2 28.125000036821127 1.8750000385034922 -6.826015450616395 0 0 0
240 2 35.62500004718261 1.8750000355819374 -6.82601540900126 0 0 0
206 2 1.875000046693955 5.625000035806655 -6.826015374528482 0 0 0
214 2 9.375000013224797 5.625000023195182 -6.826015358222694 0 0 0
222 2 16.874999999517144 5.624999998754286 -6.826015352909899 0 0 0
230 2 24.37500002461345 5.625000002240697 -6.826015426002793 0 0 0
238 2 31.875000047799965 5.625000026667914 -6.82601540471246 0 0 0
248 2 5.625000020414835 9.375000007281905 -6.8260153657275255 0 0 0
256 2 13.124999976929605 9.37500000438278 -6.826015378367482 0 0 0
264 2 20.62499997288883 9.374999974015946 -6.826015384005686 0 0 0
272 2 28.125000017631283 9.375000008861827 -6.8260154152786665 0 0 0
280 2 35.62500002987954 9.375000015289352 -6.82601537912064 0 0 0
246 2 1.8750000130689255 13.125000014015724 -6.826015365991114 0 0 0
254 2 9.375000004309078 13.124999982844695 -6.826015393244545 0 0 0
262 2 16.874999957606995 13.124999977608038 -6.826015419532411 0 0 0
270 2 24.37499997241509 13.124999973102463 -6.826015451738308 0 0 0
278 2 31.87500001081032 13.124999998894985 -6.826015421276714 0 0 0
288 2 5.625000002541493 16.874999997832898 -6.826015357371067 0 0 0
296 2 13.1249999867419 16.874999969813096 -6.826015413742685 0 0 0
304 2 20.62499996727944 16.874999956472646 -6.826015460643388 0 0 0
312 2 28.12499999426608 16.874999985950186 -6.82601548411665 0 0 0
320 2 35.6250000135012 16.87499999858867 -6.826015429692583 0 0 0
286 2 1.8750000031210463 20.62500001419546 -6.826015428798174 0 0 0
294 2 9.374999980142363 20.624999979912538 -6.826015382469829 0 0 0
302 2 16.87499995622927 20.624999959766654 -6.826015447025277 0 0 0
310 2 24.374999966933593 20.624999957142396 -6.826015495874613 0 0 0
318 2 31.87500000613145 20.62499999462697 -6.826015481339426 0 0 0
328 2 5.625000003265762 24.37500001926179 -6.826015424010492 0 0 0
336 2 13.124999966116562 24.374999982810063 -6.82601544444014 0 0 0
344 2 20.624999954233804 24.37499996602166 -6.826015497139494 0 0 0
352 2 28.124999990617628 24.374999995210125 -6.826015506175582 0 0 0
360 2 35.625000017035156 24.37500001442271 -6.826015483501669 0 0 0
326 2 1.8750000397118667 28.12500004563524 -6.826015442709145 0 0 0
334 2 9.375000012157663 28.125000013201927 -6.826015427032612 0 0 0
342 2 16.874999981445896 28.12499999306033 -6.826015482688172 0 0 0
350 2 24.37499999075563 28.124999994086185 -6.826015509889011 0 0 0
358 2 31.875000025063702 28.125000018605423 -6.826015482243771 0 0 0
368 2 5.625000029459905 31.87500003764295 -6.826015394578995 0 0 0
376 2 13.125000004228092 31.875000013160076 -6.826015428075321 0 0 0
384 2 20.624999997086736 31.87500000187534 -6.8260154796067205 0 0 0
392 2 28.125000022751788 31.875000024411115 -6.826015480719547 0 0 0
400 2 35.62500004208567 31.87500004177005 -6.826015435737764 0 0 0
366 2 1.8750000325239633 35.625000055886055 -6.826015394143414 0 0 0
374 2 9.375000017991773 35.625000027826424 -6.826015379378529 0 0 0
382 2 16.874999992629558 35.62500000816054 -6.826015430630904 0 0 0
390 2 24.375000009548263 35.62500002023423 -6.826015477601548 0 0 0
398 2 31.87500004039347 35.62500003789945 -6.826015437692735 0 0 0
207 2 1.87500003325165 1.8750000251887906 -3.8732785245032333 0 0 0
202 1 3.750000038625949 2.8500733244067368e-08 -5.349645238505243 0 0 0
215 2 9.375000017638309 1.8750000128389457 -3.8732784782743357 0 0 0
210 1 11.250000024122953 2.639580998220481e-09 -5.349645265117489 0 0 0
223 2 16.875000016928645 1.8750000076783542 -3.8732785398009293 0 0 0
218 1 18.750000012356097 1.9705728489970093e-08 -5.349645275185936 0 0 0
226 1 26.250000014425627 2.6090212656981748e-08 -5.349645316001698 0 0 0
231 2 24.3750000287732 1.875000013558528 -3.8732785432784484 0 0 0
239 2 31.875000036370825 1.87500001430247 -3.873278564196902 0 0 0
234 1 33.75000003398695 4.019167221258613e-08 -5.349645271105001 0 0 0
204 1 2.2464703874902625e-08 3.7500000428020006 -5.349645238612723 0 0 0
212 1 7.499999997552628 3.7500000252013286 -5.349645217974607 0 0 0
220 1 14.999999999230761 3.750000000100231 -5.349645228093462 0 0 0
228 1 22.500000000733408 3.7500000181752644 -5.349645293913688 0 0 0
236 1 30.000000004771366 3.750000037558876 -5.34964530316399 0 0 0
242 1 3.750000018177203 7.500000010435436 -5.349645214430968 0 0 0
205 2 5.625000013191133 5.625000016961885 -3.873278473575311 0 0 0
213 2 13.125000014733432 5.624999977181387 -3.8732784780101737 0 0 0
250 1 11.249999978584977 7.499999991699977 -5.349645200001816 0 0 0
221 2 20.62500000457821 5.625000009972494 -3.8732785443451903 0 0 0
258 1 18.74999999116164 7.499999997131062 -5.3496452327794675 0 0 0
266 1 26.250000006228667 7.499999999501287 -5.349645303280667 0 0 0
229 2 28.12500001926857 5.625000008783579 -3.8732785525525064 0 0 0
274 1 33.750000021221474 7.500000028520146 -5.349645283425167 0 0 0
237 2 35.62500002675545 5.625000029681886 -3.873278534098152 0 0 0
247 2 1.875000019023073 9.375000027978617 -3.873278485354947 0 0 0
255 2 9.375000006537508 9.374999993635125 -3.873278430403041 0 0 0
263 2 16.87500002152894 9.374999958408102 -3.8732785048370926 0 0 0
271 2 24.375000010178777 9.374999985404582 -3.8732785521966413 0 0 0
279 2 31.875000016862806 9.375000017806196 -3.873278558426291 0 0 0
244 1 2.2232043761505338e-08 11.250000013676233 -5.349645268144764 0 0 0
245 2 5.62499997444184 13.125000031248085 -3.873278452994504 0 0 0
252 1 7.4999999987833394 11.24999998169592 -5.349645218079818 0 0 0
253 2 13.124999985249119 13.124999976029638 -3.8732784551028416 0 0 0
260 1 14.999999966388545 11.249999969312919 -5.349645217943217 0 0 0
261 2 20.624999995555196 13.124999966037974 -3.873278538514074 0 0 0
268 1 22.49999999181791 11.24999998312754 -5.349645291832741 0 0 0
269 2 28.12500001151843 13.124999980794682 -3.873278591165285 0 0 0
276 1 30.00000000376483 11.250000003582931 -5.349645307661169 0 0 0
277 2 35.62500000948371 13.125000029756828 -3.8732785456359804 0 0 0
282 1 3.7500000003715415 15.000000006750955 -5.349645236421652 0 0 0
290 1 11.249999962706836 14.999999956467091 -5.349645227929109 0 0 0
298 1 18.749999939735584 14.999999968410593 -5.3496452584084295 0 0 0
306 1 26.249999981658913 14.999999970245629 -5.349645317888444 0 0 0
314 1 33.750000002381654 15.000000018962137 -5.3496452890465065 0 0 0
287 2 1.8750000000011195 16.875000024706818 -3.8732785542618684 0 0 0
295 2 9.37499995175952 16.87500002422262 -3.873278487861646 0 0 0
303 2 16.87499996231645 16.87499997837093 -3.873278556242636 0 0 0
311 2 24.374999974370418 16.874999974992487 -3.8732786099801 0 0 0
319 2 31.875000005090374 16.87500001063193 -3.8732786247368987 0 0 0
284 1 1.3339109462592029e-08 18.750000018052084 -5.349645259482616 0 0 0
285 2 5.625000003803382 20.62500001413902 -3.8732785483077947 0 0 0
292 1 7.4999999930490455 18.749999998490182 -5.349645234714208 0 0 0
293 2 13.1249999705785 20.624999984534302 -3.8732785544697 0 0 0
300 1 14.999999958804741 18.74999994752708 -5.349645241997504 0 0 0
301 2 20.624999975887153 20.62499997759014 -3.873278624281966 0 0 0
308 1 22.499999963633396 18.749999965675237 -5.349645312174367 0 0 0
309 2 28.125000002843453 20.624999979053953 -3.8732786434496873 0 0 0
316 1 29.999999997866695 18.749999982235504 -5.349645307720821 0 0 0
317 2 35.6250000191936 20.62500002125015 -3.8732786075067103 0 0 0
322 1 3.7500000237948146 22.50000001403268 -5.349645276645915 0 0 0
330 1 11.249999993230553 22.49999998042506 -5.349645284586124 0 0 0
338 1 18.749999968245902 22.499999972940536 -5.349645306088039 0 0 0
346 1 26.250000002496687 22.499999967440573 -5.349645362989514 0 0 0
354 1 33.75000003271398 22.499999990275136 -5.349645319798849 0 0 0
324 1 3.603322085155014e-08 26.2500000014507 -5.3496453231167465 0 0 0
327 2 1.8750000297664005 24.37500002780856 -3.873278556030401 0 0 0
332 1 7.5000000048118265 26.250000008487874 -5.349645317128377 0 0 0
335 2 9.374999996790573 24.37500000718301 -3.8732785335791937 0 0 0
340 1 14.999999977070491 26.249999983153447 -5.349645310984462 0 0 0
343 2 16.874999981346875 24.37499997818446 -3.873278604905136 0 0 0
348 1 22.49999997289174 26.249999997601527 -5.3496453730664735 0 0 0
351 2 24.37499998034042 24.37499997109371 -3.8732786213696486 0 0 0
356 1 29.999999994574466 26.249999995627267 -5.349645364980526 0 0 0
359 2 31.875000009296684 24.375000004823566 -3.8732786147814995 0 0 0
325 2 5.625000000951245 28.125000031593807 -3.873278541595601 0 0 0
333 2 13.1249999845782 28.125000003630078 -3.8732785771439646 0 0 0
341 2 20.6249999779856 28.125000005924274 -3.8732786251545046 0 0 0
349 2 28.12499998102399 28.124999982412824 -3.8732786386651408 0 0 0
357 2 35.625000000520146 28.12500003249057 -3.8732785837435078 0 0 0
367 2 1.8750000157215156 31.875000036610935 -3.873278576606304 0 0 0
362 1 3.7500000272991056 30.00000001344623 -5.349645300935311 0 0 0
375 2 9.375000007733037 31.875000018355756 -3.8732785553963014 0 0 0
370 1 11.249999996434061 30.000000004712476 -5.349645299979924 0 0 0
383 2 16.8750000091519 31.875000011492748 -3.873278619608236 0 0 0
378 1 18.74999997253609 30.000000011886122 -5.349645306932435 0 0 0
386 1 26.249999986823607 30.000000002090253 -5.349645351220312 0 0 0
391 2 24.374999997701575 31.875000005306312 -3.873278628709193 0 0 0
399 2 31.875000008473567 31.87500001945024 -3.87327864267844 0 0 0
394 1 33.75000000873764 30.000000027749746 -5.349645310508437 0 0 0
364 1 4.066360759225063e-08 33.75000002454664 -5.3496452644873065 0 0 0
372 1 7.500000037281386 33.7500000124281 -5.3496452769465455 0 0 0
380 1 15.000000018404899 33.750000004552646 -5.349645271243783 0 0 0
388 1 22.50000000018401 33.750000019337406 -5.349645311146578 0 0 0
396 1 30.000000021913653 33.7500000158618 -5.349645293866479 0 0 0
365 2 5.625000026122316 35.62500003472059 -3.8732785312607705 0 0 0
373 2 13.125000031684628 35.62500000673957 -3.873278550805325 0 0 0
381 2 20.6250000359865 35.6250000157101 -3.8732785828930636 0 0 0
389 2 28.12500003754994 35.62500000165588 -3.8732786004912056 0 0 0
397 2 35.6250000342907 35.62500003169269 -3.873278591509354 0 0 0
401 1 1.3242313912087411e-08 2.1045799769581208e-08 -2.396911657001871 0 0 0
409 1 7.500000019380393 6.987690426285553e-09 -2.396911611298234 0 0 0
417 1 15.000000015741799 37.49999999706375 -2.3969116569192397 0 -1 0
425 1 22.500000002151864 37.49999999018403 -2.396911742399412 0 -1 0
433 1 30.000000016026306 37.499999999979735 -2.3969117372084416 0 -1 0
403 1 3.7500000235985187 3.7500000235154944 -2.3969116117107148 0 0 0
411 1 11.250000025394497 3.7500000029975205 -2.3969115834242576 0 0 0
419 1 18.750000017041415 3.749999989448725 -2.396911653919977 0 0 0
427 1 26.250000017184654 3.750000009635232 -2.396911715456257 0 0 0
435 1 33.750000027974465 3.7500000112365366 -2.396911672380033 0 0 0
441 1 1.2137363114561595e-08 7.500000021418684 -2.396911626903359 0 0 0
449 1 7.500000011369555 7.50000000589173 -2.3969115929062044 0 0 0
457 1 15.000000008655753 7.49999999192162 -2.396911597929351 0 0 0
465 1 22.500000010365763 7.500000001656879 -2.3969116622920095 0 0 0
473 1 30.00000001193628 7.500000016803122 -2.396911685707237 0 0 0
443 1 3.7499999950094516 11.250000023154268 -2.3969116017843084 0 0 0
451 1 11.249999985543363 11.249999991549647 -2.396911595056238 0 0 0
459 1 18.749999991158496 11.249999983054007 -2.3969116461029305 0 0 0
467 1 26.249999993724735 11.250000017795042 -2.3969116897332303 0 0 0
475 1 33.749999997165816 11.250000019728796 -2.396911656783719 0 0 0
481 1 37.49999999074974 15.000000026184354 -2.396911648730373 -1 0 0
489 1 7.499999991113977 15.000000005369612 -2.3969115972366097 0 0 0
497 1 14.999999981306656 14.999999981980642 -2.3969116505649817 0 0 0
505 1 22.499999988554464 14.999999984447445 -2.3969117168508065 0 0 0
513 1 29.99999999088786 15.000000015020396 -2.3969117307405217 0 0 0
483 1 3.749999995340092 18.750000026236766 -2.396911652183097 0 0 0
491 1 11.249999991018475 18.749999996573653 -2.3969116388169485 0 0 0
499 1 18.74999997338746 18.749999968465133 -2.396911734635496 0 0 0
507 1 26.24999998380402 18.74999999823461 -2.3969117919014993 0 0 0
515 1 33.749999994026375 18.750000004456577 -2.3969117601542917 0 0 0
521 1 37.49999999082078 22.50000000807345 -2.3969117474585144 -1 0 0
529 1 7.500000001080307 22.500000011577757 -2.3969116596746725 0 0 0
537 1 14.9999999916016 22.499999990527616 -2.3969117130879867 0 0 0
545 1 22.49999997413666 22.49999997705471 -2.396911793995903 0 0 0
553 1 29.999999966915542 22.499999999758092 -2.3969118208220572 0 0 0
523 1 3.7500000016234396 26.2500000120891 -2.3969117147927883 0 0 0
531 1 11.250000013572143 26.25000000254943 -2.396911683914296 0 0 0
539 1 18.74999999713487 26.249999973661634 -2.3969117776443136 0 0 0
547 1 26.249999991431135 26.24999999632122 -2.3969118123338657 0 0 0
555 1 33.74999998548708 26.250000008230582 -2.3969117842312473 0 0 0
561 1 1.740765753766027e-09 30.000000018218707 -2.396911731629599 0 0 0
569 1 7.50000002231803 30.000000014333253 -2.3969116835028403 0 0 0
577 1 15.000000017269953 29.99999999540775 -2.396911732134937 0 0 0
585 1 22.50000001039082 29.999999969688105 -2.3969118092219657 0 0 0
593 1 30.000000005162015 30.000000005559233 -2.396911795472633 0 0 0
563 1 3.7500000106807994 33.7500000199534 -2.396911670638674 0 0 0
571 1 11.250000014882025 33.75000000253205 -2.3969116638457355 0 0 0
579 1 18.75000000221914 33.749999985242 -2.3969117611784347 0 0 0
587 1 26.25000001460005 33.749999987243505 -2.3969117903714547 0 0 0
595 1 33.750000002437545 33.750000002977806 -2.396911738214387 0 0 0
408 2 5.625000020307173 1.874999994663439 -0.9205448007630345 0 0 0
416 2 13.125000017135562 1.8749999922311849 -0.920544809855702 0 0 0
424 2 20.62500003376419 1.8749999708689964 -0.9205448677323259 0 0 0
432 2 28.12500001364891 1.8750000023945381 -0.9205448955277169 0 0 0
440 2 35.62500000555195 1.8750000107272675 -0.9205448423701335 0 0 0
406 2 1.874999996067136 5.6250000163144405 -0.920544796271052 0 0 0
414 2 9.375000023613177 5.624999986917055 -0.9205447772816158 0 0 0
422 2 16.87500002146067 5.624999980911004 -0.9205448249676385 0 0 0
430 2 24.37500002765476 5.624999993088683 -0.920544903428196 0 0 0
438 2 31.87500000810994 5.625000028174292 -0.9205448671481247 0 0 0
448 2 5.624999991208306 9.375000030681553 -0.9205447756755327 0 0 0
456 2 13.125000012819283 9.374999997665618 -0.9205447799856418 0 0 0
464 2 20.6250000377711 9.374999999359225 -0.9205448686995633 0 0 0
472 2 28.125000022150846 9.375000027221024 -0.9205449099908543 0 0 0
480 2 35.624999998427896 9.375000044461322 -0.9205448367394335 0 0 0
446 2 1.8749999870352478 13.12500002539601 -0.9205448207780267 0 0 0
454 2 9.374999990057725 13.12500001826348 -0.9205447819200656 0 0 0
462 2 16.875000014935868 13.124999990565518 -0.9205448155135039 0 0 0
470 2 24.375000019350953 13.125000004373813 -0.9205449003878046 0 0 0
478 2 31.87500001225517 13.125000028899462 -0.9205448812627602 0 0 0
488 2 5.6249999898302 16.87500001929878 -0.9205448321062704 0 0 0
496 2 13.124999987433524 16.875000009224717 -0.9205448195189313 0 0 0
504 2 20.625000007552785 16.87499997999341 -0.9205448819478909 0 0 0
512 2 28.124999991891602 16.875000013199617 -0.9205449072957019 0 0 0
520 2 35.62499998574987 16.87500001829598 -0.9205448557281958 0 0 0
486 2 1.8749999802427135 20.625000034028393 -0.9205448646668504 0 0 0
494 2 9.374999998949882 20.625000040005116 -0.9205448677272204 0 0 0
502 2 16.87499999178217 20.625000005404488 -0.9205448854466983 0 0 0
510 2 24.374999979324148 20.6250000035361 -0.9205449593329651 0 0 0
518 2 31.874999967650332 20.6250000352601 -0.9205449084111449 0 0 0
528 2 5.625000000084442 24.37500003809933 -0.9205448996580667 0 0 0
536 2 13.12500000115203 24.37500002936386 -0.9205448952730614 0 0 0
544 2 20.62500000573045 24.37499998464508 -0.9205449662897348 0 0 0
552 2 28.124999970916516 24.375000008532577 -0.9205450045018837 0 0 0
560 2 35.624999966113286 24.375000038886775 -0.9205449082938802 0 0 0
526 2 1.8749999963929092 28.12500001013682 -0.9205448980581605 0 0 0
534 2 9.37500002415919 28.125000014824096 -0.9205448976635163 0 0 0
542 2 16.875000021476524 28.12499998403413 -0.9205449032450804 0 0 0
550 2 24.375000002513822 28.124999964173483 -0.9205450083033034 0 0 0
558 2 31.874999999032934 28.12499999304109 -0.9205449801013545 0 0 0
568 2 5.625000029498286 31.875000007475244 -0.9205448644959705 0 0 0
576 2 13.125000029121978 31.875000004265154 -0.9205448572173324 0 0 0
584 2 20.625000034276592 31.874999966243585 -0.9205449117412488 0 0 0
592 2 28.125000004104372 31.8749999898245 -0.9205449763394637 0 0 0
600 2 35.62500000923347 31.87499999921234 -0.9205449111117282 0 0 0
566 2 1.8750000112810161 35.62500001322514 -0.9205448442118834 0 0 0
574 2 9.375000030269934 35.62500001394229 -0.9205448272440881 0 0 0
582 2 16.875000031164454 35.62499999176573 -0.9205448431746259 0 0 0
590 2 24.375000021660284 35.62499998430859 -0.9205449123977019 0 0 0
598 2 31.875000008843013 35.62500001554363 -0.9205449098888013 0 0 0
407 2 1.874999983483002 1.874999980759137 2.0321887939545706 0 0 0
402 1 3.7500000095695496 37.499999982447655 0.5558219753809021 0 -1 0
415 2 9.375000031265332 1.8749999643406707 2.0321887928037756 0 0 0
410 1 11.250000031797049 37.49999997855498 0.5558219697939485 0 -1 0
423 2 16.87500005643705 1.8749999633495709 2.0321887823292553 0 0 0
418 1 18.750000042687383 37.49999998001644 0.5558219029651293 0 -1 0
426 1 26.25000002555511 37.49999999211374 0.55582188921852 0 -1 0
431 2 24.37500004035346 1.874999966318929 2.0321887457436505 0 0 0
439 2 31.874999984484035 1.8749999840548168 2.0321887564112213 0 0 0
434 1 33.750000005774716 8.39695762595251e-09 0.555821896549187 0 0 0
404 1 37.49999998097183 3.750000006283817 0.555821958610717 -1 0 0
412 1 7.499999996112377 3.749999990265403 0.5558220268921665 0 0 0
420 1 15.000000026810007 3.7499999807010185 0.555821982144635 0 0 0
428 1 22.500000023115906 3.750000003179761 0.5558219340530451 0 0 0
436 1 29.999999997428212 3.7500000216733893 0.5558219282867818 0 0 0
442 1 3.7499999807709457 7.49999999975287 0.5558220269609324 0 0 0
405 2 5.6249999896381935 5.624999989379098 2.032188831718251 0 0 0
413 2 13.125000051828488 5.6249999738118435 2.032188816854708 0 0 0
450 1 11.250000009871675 7.49999999407765 0.5558220317639756 0 0 0
421 2 20.62500004886488 5.624999977578695 2.0321887964971577 0 0 0
458 1 18.750000033929858 7.499999993506592 0.5558219839680267 0 0 0
466 1 26.250000017319962 7.5000000212545 0.5558219593993494 0 0 0
429 2 28.12500002732764 5.625000000060981 2.03218877551628 0 0 0
474 1 33.74999998412719 7.500000037600371 0.5558219606516482 0 0 0