LAMMPS data file via write_data, version 29 Sep 2021, timestep = 48

3200 atoms
2 atom types

0 54.630961312 xlo xhi
0 54.630961312 ylo yhi
-13.657740328 54.630961312 zlo zhi

Masses

1 112.411
2 127.6

Atoms # atomic

1 1 0 0 -13.657740328 0 0 0
8 2 5.121652622999999 1.707217541 -11.950522786999999 0 0 0
9 1 6.828870164 0 -13.657740328 0 0 0
16 2 11.950522786999999 1.707217541 -11.950522786999999 0 0 0
17 1 13.657740328 0 -13.657740328 0 0 0
24 2 18.779392951 1.707217541 -11.950522786999999 0 0 0
25 1 20.486610491999997 0 -13.657740328 0 0 0
32 2 25.608263115 1.707217541 -11.950522786999999 0 0 0
33 1 27.315480656 0 -13.657740328 0 0 0
40 2 32.437133279 1.707217541 -11.950522786999999 0 0 0
41 1 34.14435082 0 -13.657740328 0 0 0
48 2 39.266003442999995 1.707217541 -11.950522786999999 0 0 0
49 1 40.973220983999994 0 -13.657740328 0 0 0
56 2 46.094873607 1.707217541 -11.950522786999999 0 0 0
57 1 47.802091147999995 0 -13.657740328 0 0 0
64 2 52.923743771 1.707217541 -11.950522786999999 0 0 0
6 2 1.707217541 5.121652622999999 -11.950522786999999 0 0 0
3 1 3.414435082 3.414435082 -13.657740328 0 0 0
11 1 10.243305245999998 3.414435082 -13.657740328 0 0 0
14 2 8.536087705 5.121652622999999 -11.950522786999999 0 0 0
22 2 15.364957869 5.121652622999999 -11.950522786999999 0 0 0
19 1 17.07217541 3.414435082 -13.657740328 0 0 0
30 2 22.193828033 5.121652622999999 -11.950522786999999 0 0 0
27 1 23.901045573999998 3.414435082 -13.657740328 0 0 0
35 1 30.729915738 3.414435082 -13.657740328 0 0 0
38 2 29.022698196999997 5.121652622999999 -11.950522786999999 0 0 0
46 2 35.851568361 5.121652622999999 -11.950522786999999 0 0 0
43 1 37.558785902 3.414435082 -13.657740328 0 0 0
54 2 42.680438525 5.121652622999999 -11.950522786999999 0 0 0
51 1 44.387656066 3.414435082 -13.657740328 0 0 0
59 1 51.21652623 3.414435082 -13.657740328 0 0 0
62 2 49.509308688999994 5.121652622999999 -11.950522786999999 0 0 0
65 1 0 6.828870164 -13.657740328 0 0 0
73 1 6.828870164 6.828870164 -13.657740328 0 0 0
81 1 13.657740328 6.828870164 -13.657740328 0 0 0
89 1 20.486610491999997 6.828870164 -13.657740328 0 0 0
97 1 27.315480656 6.828870164 -13.657740328 0 0 0
105 1 34.14435082 6.828870164 -13.657740328 0 0 0
113 1 40.973220983999994 6.828870164 -13.657740328 0 0 0
121 1 47.802091147999995 6.828870164 -13.657740328 0 0 0
67 1 3.414435082 10.243305245999998 -13.657740328 0 0 0
72 2 5.121652622999999 8.536087705 -11.950522786999999 0 0 0
75 1 10.243305245999998 10.243305245999998 -13.657740328 0 0 0
80 2 11.950522786999999 8.536087705 -11.950522786999999 0 0 0
83 1 17.07217541 10.243305245999998 -13.657740328 0 0 0
88 2 18.779392951 8.536087705 -11.950522786999999 0 0 0
91 1 23.901045573999998 10.243305245999998 -13.657740328 0 0 0
96 2 25.608263115 8.536087705 -11.950522786999999 0 0 0
99 1 30.729915738 10.243305245999998 -13.657740328 0 0 0
104 2 32.437133279 8.536087705 -11.950522786999999 0 0 0
107 1 37.558785902 10.243305245999998 -13.657740328 0 0 0
112 2 39.266003442999995 8.536087705 -11.950522786999999 0 0 0
115 1 44.387656066 10.243305245999998 -13.657740328 0 0 0
120 2 46.094873607 8.536087705 -11.950522786999999 0 0 0
123 1 51.21652623 10.243305245999998 -13.657740328 0 0 0
128 2 52.923743771 8.536087705 -11.950522786999999 0 0 0
70 2 1.707217541 11.950522786999999 -11.950522786999999 0 0 0
78 2 8.536087705 11.950522786999999 -11.950522786999999 0 0 0
86 2 15.364957869 11.950522786999999 -11.950522786999999 0 0 0
94 2 22.193828033 11.950522786999999 -11.950522786999999 0 0 0
102 2 29.022698196999997 11.950522786999999 -11.950522786999999 0 0 0
110 2 35.851568361 11.950522786999999 -11.950522786999999 0 0 0
118 2 42.680438525 11.950522786999999 -11.950522786999999 0 0 0
126 2 49.509308688999994 11.950522786999999 -11.950522786999999 0 0 0
129 1 0 13.657740328 -13.657740328 0 0 0
136 2 5.121652622999999 15.364957869 -11.950522786999999 0 0 0
137 1 6.828870164 13.657740328 -13.657740328 0 0 0
144 2 11.950522786999999 15.364957869 -11.950522786999999 0 0 0
145 1 13.657740328 13.657740328 -13.657740328 0 0 0
152 2 18.779392951 15.364957869 -11.950522786999999 0 0 0
153 1 20.486610491999997 13.657740328 -13.657740328 0 0 0
160 2 25.608263115 15.364957869 -11.950522786999999 0 0 0
161 1 27.315480656 13.657740328 -13.657740328 0 0 0
168 2 32.437133279 15.364957869 -11.950522786999999 0 0 0
169 1 34.14435082 13.657740328 -13.657740328 0 0 0
176 2 39.266003442999995 15.364957869 -11.950522786999999 0 0 0
177 1 40.973220983999994 13.657740328 -13.657740328 0 0 0
184 2 46.094873607 15.364957869 -11.950522786999999 0 0 0
185 1 47.802091147999995 13.657740328 -13.657740328 0 0 0
192 2 52.923743771 15.364957869 -11.950522786999999 0 0 0
131 1 3.414435082 17.07217541 -13.657740328 0 0 0
139 1 10.243305245999998 17.07217541 -13.657740328 0 0 0
147 1 17.07217541 17.07217541 -13.657740328 0 0 0
155 1 23.901045573999998 17.07217541 -13.657740328 0 0 0
163 1 30.729915738 17.07217541 -13.657740328 0 0 0
171 1 37.558785902 17.07217541 -13.657740328 0 0 0
179 1 44.387656066 17.07217541 -13.657740328 0 0 0
187 1 51.21652623 17.07217541 -13.657740328 0 0 0
134 2 1.707217541 18.779392951 -11.950522786999999 0 0 0
193 1 0 20.486610491999997 -13.657740328 0 0 0
201 1 6.828870164 20.486610491999997 -13.657740328 0 0 0
142 2 8.536087705 18.779392951 -11.950522786999999 0 0 0
150 2 15.364957869 18.779392951 -11.950522786999999 0 0 0
209 1 13.657740328 20.486610491999997 -13.657740328 0 0 0
217 1 20.486610491999997 20.486610491999997 -13.657740328 0 0 0
158 2 22.193828033 18.779392951 -11.950522786999999 0 0 0
225 1 27.315480656 20.486610491999997 -13.657740328 0 0 0
166 2 29.022698196999997 18.779392951 -11.950522786999999 0 0 0
174 2 35.851568361 18.779392951 -11.950522786999999 0 0 0
233 1 34.14435082 20.486610491999997 -13.657740328 0 0 0
241 1 40.973220983999994 20.486610491999997 -13.657740328 0 0 0
182 2 42.680438525 18.779392951 -11.950522786999999 0 0 0
249 1 47.802091147999995 20.486610491999997 -13.657740328 0 0 0
190 2 49.509308688999994 18.779392951 -11.950522786999999 0 0 0
200 2 5.121652622999999 22.193828033 -11.950522786999999 0 0 0
208 2 11.950522786999999 22.193828033 -11.950522786999999 0 0 0
216 2 18.779392951 22.193828033 -11.950522786999999 0 0 0
224 2 25.608263115 22.193828033 -11.950522786999999 0 0 0
232 2 32.437133279 22.193828033 -11.950522786999999 0 0 0
240 2 39.266003442999995 22.193828033 -11.950522786999999 0 0 0
248 2 46.094873607 22.193828033 -11.950522786999999 0 0 0
256 2 52.923743771 22.193828033 -11.950522786999999 0 0 0
198 2 1.707217541 25.608263115 -11.950522786999999 0 0 0
195 1 3.414435082 23.901045573999998 -13.657740328 0 0 0
203 1 10.243305245999998 23.901045573999998 -13.657740328 0 0 0
206 2 8.536087705 25.608263115 -11.950522786999999 0 0 0
214 2 15.364957869 25.608263115 -11.950522786999999 0 0 0
211 1 17.07217541 23.901045573999998 -13.657740328 0 0 0
222 2 22.193828033 25.608263115 -11.950522786999999 0 0 0
219 1 23.901045573999998 23.901045573999998 -13.657740328 0 0 0
227 1 30.729915738 23.901045573999998 -13.657740328 0 0 0
230 2 29.022698196999997 25.608263115 -11.950522786999999 0 0 0
238 2 35.851568361 25.608263115 -11.950522786999999 0 0 0
235 1 37.558785902 23.901045573999998 -13.657740328 0 0 0
246 2 42.680438525 25.608263115 -11.950522786999999 0 0 0
243 1 44.387656066 23.901045573999998 -13.657740328 0 0 0
251 1 51.21652623 23.901045573999998 -13.657740328 0 0 0
254 2 49.509308688999994 25.608263115 -11.950522786999999 0 0 0
257 1 0 27.315480656 -13.657740328 0 0 0
265 1 6.828870164 27.315480656 -13.657740328 0 0 0
273 1 13.657740328 27.315480656 -13.657740328 0 0 0
281 1 20.486610491999997 27.315480656 -13.657740328 0 0 0
289 1 27.315480656 27.315480656 -13.657740328 0 0 0
297 1 34.14435082 27.315480656 -13.657740328 0 0 0
305 1 40.973220983999994 27.315480656 -13.657740328 0 0 0
313 1 47.802091147999995 27.315480656 -13.657740328 0 0 0
259 1 3.414435082 30.729915738 -13.657740328 0 0 0
264 2 5.121652622999999 29.022698196999997 -11.950522786999999 0 0 0
267 1 10.243305245999998 30.729915738 -13.657740328 0 0 0
272 2 11.950522786999999 29.022698196999997 -11.950522786999999 0 0 0
275 1 17.07217541 30.729915738 -13.657740328 0 0 0
280 2 18.779392951 29.022698196999997 -11.950522786999999 0 0 0
283 1 23.901045573999998 30.729915738 -13.657740328 0 0 0
288 2 25.608263115 29.022698196999997 -11.950522786999999 0 0 0
291 1 30.729915738 30.729915738 -13.657740328 0 0 0
296 2 32.437133279 29.022698196999997 -11.950522786999999 0 0 0
299 1 37.558785902 30.729915738 -13.657740328 0 0 0
304 2 39.266003442999995 29.022698196999997 -11.950522786999999 0 0 0
307 1 44.387656066 30.729915738 -13.657740328 0 0 0
312 2 46.094873607 29.022698196999997 -11.950522786999999 0 0 0
315 1 51.21652623 30.729915738 -13.657740328 0 0 0
320 2 52.923743771 29.022698196999997 -11.950522786999999 0 0 0
262 2 1.707217541 32.437133279 -11.950522786999999 0 0 0
270 2 8.536087705 32.437133279 -11.950522786999999 0 0 0
278 2 15.364957869 32.437133279 -11.950522786999999 0 0 0
286 2 22.193828033 32.437133279 -11.950522786999999 0 0 0
294 2 29.022698196999997 32.437133279 -11.950522786999999 0 0 0
302 2 35.851568361 32.437133279 -11.950522786999999 0 0 0
310 2 42.680438525 32.437133279 -11.950522786999999 0 0 0
318 2 49.509308688999994 32.437133279 -11.950522786999999 0 0 0
321 1 0 34.14435082 -13.657740328 0 0 0
328 2 5.121652622999999 35.851568361 -11.950522786999999 0 0 0
329 1 6.828870164 34.14435082 -13.657740328 0 0 0
336 2 11.950522786999999 35.851568361 -11.950522786999999 0 0 0
337 1 13.657740328 34.14435082 -13.657740328 0 0 0
344 2 18.779392951 35.851568361 -11.950522786999999 0 0 0
345 1 20.486610491999997 34.14435082 -13.657740328 0 0 0
352 2 25.608263115 35.851568361 -11.950522786999999 0 0 0
353 1 27.315480656 34.14435082 -13.657740328 0 0 0
360 2 32.437133279 35.851568361 -11.950522786999999 0 0 0
361 1 34.14435082 34.14435082 -13.657740328 0 0 0
368 2 39.266003442999995 35.851568361 -11.950522786999999 0 0 0
369 1 40.973220983999994 34.14435082 -13.657740328 0 0 0
376 2 46.094873607 35.851568361 -11.950522786999999 0 0 0
377 1 47.802091147999995 34.14435082 -13.657740328 0 0 0
384 2 52.923743771 35.851568361 -11.950522786999999 0 0 0
323 1 3.414435082 37.558785902 -13.657740328 0 0 0
331 1 10.243305245999998 37.558785902 -13.657740328 0 0 0
339 1 17.07217541 37.558785902 -13.657740328 0 0 0
347 1 23.901045573999998 37.558785902 -13.657740328 0 0 0
355 1 30.729915738 37.558785902 -13.657740328 0 0 0
363 1 37.558785902 37.558785902 -13.657740328 0 0 0
371 1 44.387656066 37.558785902 -13.657740328 0 0 0
379 1 51.21652623 37.558785902 -13.657740328 0 0 0
326 2 1.707217541 39.266003442999995 -11.950522786999999 0 0 0
385 1 0 40.973220983999994 -13.657740328 0 0 0
393 1 6.828870164 40.973220983999994 -13.657740328 0 0 0
334 2 8.536087705 39.266003442999995 -11.950522786999999 0 0 0
342 2 15.364957869 39.266003442999995 -11.950522786999999 0 0 0
401 1 13.657740328 40.973220983999994 -13.657740328 0 0 0
409 1 20.486610491999997 40.973220983999994 -13.657740328 0 0 0
350 2 22.193828033 39.266003442999995 -11.950522786999999 0 0 0
417 1 27.315480656 40.973220983999994 -13.657740328 0 0 0
358 2 29.022698196999997 39.266003442999995 -11.950522786999999 0 0 0
366 2 35.851568361 39.266003442999995 -11.950522786999999 0 0 0
425 1 34.14435082 40.973220983999994 -13.657740328 0 0 0
433 1 40.973220983999994 40.973220983999994 -13.657740328 0 0 0
374 2 42.680438525 39.266003442999995 -11.950522786999999 0 0 0
441 1 47.802091147999995 40.973220983999994 -13.657740328 0 0 0
382 2 49.509308688999994 39.266003442999995 -11.950522786999999 0 0 0
392 2 5.121652622999999 42.680438525 -11.950522786999999 0 0 0
400 2 11.950522786999999 42.680438525 -11.950522786999999 0 0 0
408 2 18.779392951 42.680438525 -11.950522786999999 0 0 0
416 2 25.608263115 42.680438525 -11.950522786999999 0 0 0
424 2 32.437133279 42.680438525 -11.950522786999999 0 0 0
432 2 39.266003442999995 42.680438525 -11.950522786999999 0 0 0
440 2 46.094873607 42.680438525 -11.950522786999999 0 0 0
448 2 52.923743771 42.680438525 -11.950522786999999 0 0 0
390 2 1.707217541 46.094873607 -11.950522786999999 0 0 0
387 1 3.414435082 44.387656066 -13.657740328 0 0 0
395 1 10.243305245999998 44.387656066 -13.657740328 0 0 0
398 2 8.536087705 46.094873607 -11.950522786999999 0 0 0
406 2 15.364957869 46.094873607 -11.950522786999999 0 0 0
403 1 17.07217541 44.387656066 -13.657740328 0 0 0
414 2 22.193828033 46.094873607 -11.950522786999999 0 0 0
411 1 23.901045573999998 44.387656066 -13.657740328 0 0 0
419 1 30.729915738 44.387656066 -13.657740328 0 0 0
422 2 29.022698196999997 46.094873607 -11.950522786999999 0 0 0
430 2 35.851568361 46.094873607 -11.950522786999999 0 0 0
427 1 37.558785902 44.387656066 -13.657740328 0 0 0
438 2 42.680438525 46.094873607 -11.950522786999999 0 0 0
435 1 44.387656066 44.387656066 -13.657740328 0 0 0
443 1 51.21652623 44.387656066 -13.657740328 0 0 0
446 2 49.509308688999994 46.094873607 -11.950522786999999 0 0 0
449 1 0 47.802091147999995 -13.657740328 0 0 0
457 1 6.828870164 47.802091147999995 -13.657740328 0 0 0
465 1 13.657740328 47.802091147999995 -13.657740328 0 0 0
473 1 20.486610491999997 47.802091147999995 -13.657740328 0 0 0
481 1 27.315480656 47.802091147999995 -13.657740328 0 0 0
489 1 34.14435082 47.802091147999995 -13.657740328 0 0 0
497 1 40.973220983999994 47.802091147999995 -13.657740328 0 0 0
505 1 47.802091147999995 47.802091147999995 -13.657740328 0 0 0
451 1 3.414435082 51.21652623 -13.657740328 0 0 0
456 2 5.121652622999999 49.509308688999994 -11.950522786999999 0 0 0
459 1 10.243305245999998 51.21652623 -13.657740328 0 0 0
464 2 11.950522786999999 49.509308688999994 -11.950522786999999 0 0 0
467 1 17.07217541 51.21652623 -13.657740328 0 0 0
472 2 18.779392951 49.509308688999994 -11.950522786999999 0 0 0
475 1 23.901045573999998 51.21652623 -13.657740328 0 0 0
480 2 25.608263115 49.509308688999994 -11.950522786999999 0 0 0
483 1 30.729915738 51.21652623 -13.657740328 0 0 0
488 2 32.437133279 49.509308688999994 -11.950522786999999 0 0 0
491 1 37.558785902 51.21652623 -13.657740328 0 0 0
496 2 39.266003442999995 49.509308688999994 -11.950522786999999 0 0 0
499 1 44.387656066 51.21652623 -13.657740328 0 0 0
504 2 46.094873607 49.509308688999994 -11.950522786999999 0 0 0
507 1 51.21652623 51.21652623 -13.657740328 0 0 0
512 2 52.923743771 49.509308688999994 -11.950522786999999 0 0 0
454 2 1.707217541 52.923743771 -11.950522786999999 0 0 0
462 2 8.536087705 52.923743771 -11.950522786999999 0 0 0
470 2 15.364957869 52.923743771 -11.950522786999999 0 0 0
478 2 22.193828033 52.923743771 -11.950522786999999 0 0 0
486 2 29.022698196999997 52.923743771 -11.950522786999999 0 0 0
494 2 35.851568361 52.923743771 -11.950522786999999 0 0 0
502 2 42.680438525 52.923743771 -11.950522786999999 0 0 0
510 2 49.509308688999994 52.923743771 -11.950522786999999 0 0 0
7 2 1.7072175409999952 1.7072175410000026 -8.536086978098313 0 0 0
2 1 3.414435082 0 -10.243305245999998 0 0 0
10 1 10.243305245999998 0 -10.243305245999998 0 0 0
15 2 8.536087705000009 1.7072175410000046 -8.536086978098325 0 0 0
23 2 15.364957868999989 1.7072175409999824 -8.53608697809831 0 0 0
18 1 17.07217541 0 -10.243305245999998 0 0 0
31 2 22.193828032999985 1.707217540999985 -8.53608697809832 0 0 0
26 1 23.901045573999998 0 -10.243305245999998 0 0 0
34 1 30.729915738 0 -10.243305245999998 0 0 0
39 2 29.022698197000015 1.7072175410000183 -8.536086978098313 0 0 0
47 2 35.851568361000005 1.7072175410000066 -8.536086978098313 0 0 0
42 1 37.558785902 0 -10.243305245999998 0 0 0
55 2 42.68043852499999 1.7072175409999877 -8.536086978098313 0 0 0
50 1 44.387656066 0 -10.243305245999998 0 0 0
58 1 51.21652623 0 -10.243305245999998 0 0 0
63 2 49.50930868900001 1.7072175410000074 -8.536086978098314 0 0 0
4 1 0 3.414435082 -10.243305245999998 0 0 0
5 2 5.121652623000001 5.121652622999999 -8.536086978098314 0 0 0
12 1 6.828870164 3.414435082 -10.243305245999998 0 0 0
13 2 11.95052278700001 5.121652623000012 -8.536086978098316 0 0 0
20 1 13.657740328 3.414435082 -10.243305245999998 0 0 0
21 2 18.779392951000013 5.121652623000013 -8.53608697809832 0 0 0
28 1 20.486610491999997 3.414435082 -10.243305245999998 0 0 0
29 2 25.608263114999993 5.121652623000006 -8.536086978098314 0 0 0
36 1 27.315480656 3.414435082 -10.243305245999998 0 0 0
37 2 32.437133278999994 5.121652622999993 -8.536086978098314 0 0 0
44 1 34.14435082 3.414435082 -10.243305245999998 0 0 0
45 2 39.266003442999974 5.121652622999985 -8.536086978098327 0 0 0
52 1 40.973220983999994 3.414435082 -10.243305245999998 0 0 0
53 2 46.09487360699999 5.121652623000006 -8.536086978098304 0 0 0
60 1 47.802091147999995 3.414435082 -10.243305245999998 0 0 0
61 2 52.92374377099996 5.121652622999984 -8.536086978098316 0 0 0
66 1 3.414435082 6.828870164 -10.243305245999998 0 0 0
74 1 10.243305245999998 6.828870164 -10.243305245999998 0 0 0
82 1 17.07217541 6.828870164 -10.243305245999998 0 0 0
90 1 23.901045573999998 6.828870164 -10.243305245999998 0 0 0
98 1 30.729915738 6.828870164 -10.243305245999998 0 0 0
106 1 37.558785902 6.828870164 -10.243305245999998 0 0 0
114 1 44.387656066 6.828870164 -10.243305245999998 0 0 0
122 1 51.21652623 6.828870164 -10.243305245999998 0 0 0
68 1 0 10.243305245999998 -10.243305245999998 0 0 0
71 2 1.707217540999982 8.536087704999984 -8.53608697809831 0 0 0
76 1 6.828870164 10.243305245999998 -10.243305245999998 0 0 0
79 2 8.53608770499999 8.53608770499998 -8.536086978098309 0 0 0
84 1 13.657740328 10.243305245999998 -10.243305245999998 0 0 0
87 2 15.36495786899998 8.536087704999987 -8.536086978098318 0 0 0
92 1 20.486610491999997 10.243305245999998 -10.243305245999998 0 0 0
95 2 22.19382803300002 8.536087705000025 -8.53608697809832 0 0 0
100 1 27.315480656 10.243305245999998 -10.243305245999998 0 0 0
103 2 29.02269819699998 8.536087704999977 -8.536086978098329 0 0 0
108 1 34.14435082 10.243305245999998 -10.243305245999998 0 0 0
111 2 35.85156836099999 8.536087705000003 -8.53608697809831 0 0 0
116 1 40.973220983999994 10.243305245999998 -10.243305245999998 0 0 0
119 2 42.68043852499998 8.53608770499999 -8.536086978098316 0 0 0
124 1 47.802091147999995 10.243305245999998 -10.243305245999998 0 0 0
127 2 49.509308689 8.53608770500001 -8.536086978098309 0 0 0
69 2 5.121652622999997 11.950522786999992 -8.53608697809831 0 0 0
77 2 11.950522786999965 11.950522786999965 -8.53608697809832 0 0 0
85 2 18.779392950999977 11.950522786999981 -8.536086978098314 0 0 0
93 2 25.60826311499998 11.950522786999988 -8.536086978098329 0 0 0
101 2 32.43713327899995 11.950522786999958 -8.536086978098322 0 0 0
109 2 39.26600344299999 11.95052278700001 -8.536086978098306 0 0 0
117 2 46.09487360700003 11.950522787000024 -8.536086978098307 0 0 0
125 2 52.92374377100002 11.950522787000017 -8.53608697809831 0 0 0
135 2 1.7072175410000046 15.364957869000005 -8.536086978098302 0 0 0
130 1 3.414435082 13.657740328 -10.243305245999998 0 0 0
138 1 10.243305245999998 13.657740328 -10.243305245999998 0 0 0
143 2 8.536087704999998 15.364957868999998 -8.536086978098306 0 0 0
151 2 15.364957868999992 15.36495786899999 -8.53608697809831 0 0 0
146 1 17.07217541 13.657740328 -10.243305245999998 0 0 0
159 2 22.19382803299999 15.364957868999989 -8.536086978098313 0 0 0
154 1 23.901045573999998 13.657740328 -10.243305245999998 0 0 0
162 1 30.729915738 13.657740328 -10.243305245999998 0 0 0
167 2 29.022698196999993 15.364957868999996 -8.536086978098318 0 0 0
175 2 35.85156836099994 15.364957868999955 -8.536086978098293 0 0 0
170 1 37.558785902 13.657740328 -10.243305245999998 0 0 0
183 2 42.68043852500001 15.36495786900001 -8.536086978098325 0 0 0
178 1 44.387656066 13.657740328 -10.243305245999998 0 0 0
186 1 51.21652623 13.657740328 -10.243305245999998 0 0 0
191 2 49.50930868900004 15.364957869000051 -8.536086978098314 0 0 0
132 1 0 17.07217541 -10.243305245999998 0 0 0
140 1 6.828870164 17.07217541 -10.243305245999998 0 0 0
148 1 13.657740328 17.07217541 -10.243305245999998 0 0 0
156 1 20.486610491999997 17.07217541 -10.243305245999998 0 0 0
164 1 27.315480656 17.07217541 -10.243305245999998 0 0 0
172 1 34.14435082 17.07217541 -10.243305245999998 0 0 0
180 1 40.973220983999994 17.07217541 -10.243305245999998 0 0 0
188 1 47.802091147999995 17.07217541 -10.243305245999998 0 0 0
133 2 5.121652623000014 18.77939295100001 -8.536086978098313 0 0 0
194 1 3.414435082 20.486610491999997 -10.243305245999998 0 0 0
202 1 10.243305245999998 20.486610491999997 -10.243305245999998 0 0 0
141 2 11.950522786999992 18.779392951000002 -8.53608697809831 0 0 0
210 1 17.07217541 20.486610491999997 -10.243305245999998 0 0 0
149 2 18.77939295099999 18.779392950999974 -8.53608697809832 0 0 0
157 2 25.60826311500001 18.779392950999995 -8.536086978098318 0 0 0
218 1 23.901045573999998 20.486610491999997 -10.243305245999998 0 0 0
226 1 30.729915738 20.486610491999997 -10.243305245999998 0 0 0
165 2 32.43713327899998 18.779392951 -8.536086978098302 0 0 0
234 1 37.558785902 20.486610491999997 -10.243305245999998 0 0 0
173 2 39.26600344299997 18.779392950999945 -8.536086978098306 0 0 0
181 2 46.09487360700003 18.779392951000023 -8.53608697809832 0 0 0
242 1 44.387656066 20.486610491999997 -10.243305245999998 0 0 0
250 1 51.21652623 20.486610491999997 -10.243305245999998 0 0 0
189 2 52.923743771000034 18.779392951000034 -8.53608697809831 0 0 0
199 2 1.7072175409999972 22.193828033 -8.536086978098313 0 0 0
207 2 8.53608770500002 22.19382803300001 -8.536086978098325 0 0 0
215 2 15.364957869 22.193828032999996 -8.536086978098316 0 0 0
223 2 22.193828032999992 22.193828032999985 -8.536086978098309 0 0 0
231 2 29.022698196999972 22.193828032999974 -8.536086978098314 0 0 0
239 2 35.85156836100001 22.19382803300002 -8.536086978098298 0 0 0
247 2 42.68043852500002 22.19382803300001 -8.536086978098323 0 0 0
255 2 49.509308688999994 22.19382803299999 -8.536086978098334 0 0 0
196 1 0 23.901045573999998 -10.243305245999998 0 0 0
197 2 5.121652623000001 25.608263114999996 -8.536086978098306 0 0 0
204 1 6.828870164 23.901045573999998 -10.243305245999998 0 0 0
205 2 11.95052278700002 25.60826311500001 -8.536086978098318 0 0 0
212 1 13.657740328 23.901045573999998 -10.243305245999998 0 0 0
213 2 18.779392951000002 25.60826311499999 -8.536086978098304 0 0 0
220 1 20.486610491999997 23.901045573999998 -10.243305245999998 0 0 0
221 2 25.608263115000014 25.608263115000014 -8.536086978098298 0 0 0
228 1 27.315480656 23.901045573999998 -10.243305245999998 0 0 0
229 2 32.437133279 25.60826311499997 -8.536086978098297 0 0 0
236 1 34.14435082 23.901045573999998 -10.243305245999998 0 0 0
237 2 39.26600344300005 25.608263115000018 -8.536086978098323 0 0 0
244 1 40.973220983999994 23.901045573999998 -10.243305245999998 0 0 0
245 2 46.09487360700001 25.608263115000025 -8.536086978098316 0 0 0
252 1 47.802091147999995 23.901045573999998 -10.243305245999998 0 0 0
253 2 52.923743771 25.608263114999982 -8.536086978098306 0 0 0
258 1 3.414435082 27.315480656 -10.243305245999998 0 0 0
266 1 10.243305245999998 27.315480656 -10.243305245999998 0 0 0
274 1 17.07217541 27.315480656 -10.243305245999998 0 0 0
282 1 23.901045573999998 27.315480656 -10.243305245999998 0 0 0
290 1 30.729915738 27.315480656 -10.243305245999998 0 0 0
298 1 37.558785902 27.315480656 -10.243305245999998 0 0 0
306 1 44.387656066 27.315480656 -10.243305245999998 0 0 0
314 1 51.21652623 27.315480656 -10.243305245999998 0 0 0
260 1 0 30.729915738 -10.243305245999998 0 0 0
263 2 1.7072175410000137 29.02269819700001 -8.536086978098288 0 0 0
268 1 6.828870164 30.729915738 -10.243305245999998 0 0 0
271 2 8.536087705000023 29.022698197000025 -8.53608697809832 0 0 0
276 1 13.657740328 30.729915738 -10.243305245999998 0 0 0
279 2 15.364957869000008 29.022698197 -8.536086978098309 0 0 0
284 1 20.486610491999997 30.729915738 -10.243305245999998 0 0 0
287 2 22.193828033000013 29.022698197000025 -8.53608697809831 0 0 0
292 1 27.315480656 30.729915738 -10.243305245999998 0 0 0
295 2 29.02269819700002 29.022698197000015 -8.536086978098318 0 0 0
300 1 34.14435082 30.729915738 -10.243305245999998 0 0 0
303 2 35.85156836100002 29.02269819700002 -8.536086978098295 0 0 0
308 1 40.973220983999994 30.729915738 -10.243305245999998 0 0 0
311 2 42.680438525000035 29.02269819700001 -8.53608697809833 0 0 0
316 1 47.802091147999995 30.729915738 -10.243305245999998 0 0 0
319 2 49.50930868900002 29.022698197000018 -8.53608697809832 0 0 0
261 2 5.121652623000014 32.43713327900002 -8.536086978098323 0 0 0
269 2 11.950522787000015 32.43713327900002 -8.536086978098329 0 0 0
277 2 18.779392950999995 32.43713327899999 -8.53608697809832 0 0 0
285 2 25.608263115000028 32.43713327900003 -8.536086978098314 0 0 0
293 2 32.43713327899999 32.437133278999994 -8.536086978098314 0 0 0
301 2 39.266003442999995 32.43713327899999 -8.536086978098329 0 0 0
309 2 46.09487360700005 32.437133279000044 -8.536086978098307 0 0 0
317 2 52.92374377099998 32.43713327899999 -8.536086978098313 0 0 0
327 2 1.7072175409999741 35.85156836099998 -8.536086978098298 0 0 0
322 1 3.414435082 34.14435082 -10.243305245999998 0 0 0
330 1 10.243305245999998 34.14435082 -10.243305245999998 0 0 0
335 2 8.53608770500004 35.85156836100002 -8.536086978098322 0 0 0
343 2 15.364957869 35.85156836099998 -8.53608697809831 0 0 0
338 1 17.07217541 34.14435082 -10.243305245999998 0 0 0
351 2 22.19382803300002 35.851568361000034 -8.536086978098327 0 0 0
346 1 23.901045573999998 34.14435082 -10.243305245999998 0 0 0
354 1 30.729915738 34.14435082 -10.243305245999998 0 0 0
359 2 29.022698196999997 35.851568361000005 -8.53608697809831 0 0 0
367 2 35.851568361 35.85156836099995 -8.53608697809833 0 0 0
362 1 37.558785902 34.14435082 -10.243305245999998 0 0 0
375 2 42.68043852500002 35.851568361000005 -8.536086978098313 0 0 0
370 1 44.387656066 34.14435082 -10.243305245999998 0 0 0
378 1 51.21652623 34.14435082 -10.243305245999998 0 0 0
383 2 49.509308689 35.85156836100003 -8.536086978098314 0 0 0
324 1 0 37.558785902 -10.243305245999998 0 0 0
332 1 6.828870164 37.558785902 -10.243305245999998 0 0 0
340 1 13.657740328 37.558785902 -10.243305245999998 0 0 0
348 1 20.486610491999997 37.558785902 -10.243305245999998 0 0 0
356 1 27.315480656 37.558785902 -10.243305245999998 0 0 0
364 1 34.14435082 37.558785902 -10.243305245999998 0 0 0
372 1 40.973220983999994 37.558785902 -10.243305245999998 0 0 0
380 1 47.802091147999995 37.558785902 -10.243305245999998 0 0 0
325 2 5.121652622999991 39.266003442999974 -8.536086978098313 0 0 0
386 1 3.414435082 40.973220983999994 -10.243305245999998 0 0 0
394 1 10.243305245999998 40.973220983999994 -10.243305245999998 0 0 0
333 2 11.950522787000022 39.26600344300002 -8.536086978098309 0 0 0
402 1 17.07217541 40.973220983999994 -10.243305245999998 0 0 0
341 2 18.77939295099999 39.266003442999974 -8.536086978098313 0 0 0
349 2 25.608263115000007 39.26600344300001 -8.536086978098329 0 0 0
410 1 23.901045573999998 40.973220983999994 -10.243305245999998 0 0 0
418 1 30.729915738 40.973220983999994 -10.243305245999998 0 0 0
357 2 32.43713327899995 39.26600344299997 -8.536086978098306 0 0 0
426 1 37.558785902 40.973220983999994 -10.243305245999998 0 0 0
365 2 39.266003443000024 39.266003442999995 -8.536086978098323 0 0 0
373 2 46.094873606999954 39.26600344299995 -8.536086978098318 0 0 0
434 1 44.387656066 40.973220983999994 -10.243305245999998 0 0 0
442 1 51.21652623 40.973220983999994 -10.243305245999998 0 0 0
381 2 52.92374377100002 39.266003443000024 -8.5360869780983 0 0 0
391 2 1.707217541000015 42.680438525000014 -8.536086978098298 0 0 0
399 2 8.53608770499997 42.680438524999964 -8.53608697809832 0 0 0
407 2 15.364957868999971 42.68043852499997 -8.536086978098329 0 0 0
415 2 22.193828032999992 42.68043852500001 -8.536086978098316 0 0 0
423 2 29.022698197000015 42.68043852500002 -8.536086978098304 0 0 0
431 2 35.851568361000005 42.68043852499999 -8.53608697809829 0 0 0
439 2 42.680438525000014 42.68043852500001 -8.536086978098302 0 0 0
447 2 49.50930868899997 42.68043852499998 -8.536086978098329 0 0 0
388 1 0 44.387656066 -10.243305245999998 0 0 0
389 2 5.121652623000036 46.09487360700005 -8.536086978098314 0 0 0
396 1 6.828870164 44.387656066 -10.243305245999998 0 0 0
397 2 11.95052278700002 46.09487360700002 -8.536086978098298 0 0 0
404 1 13.657740328 44.387656066 -10.243305245999998 0 0 0
405 2 18.779392950999995 46.094873607 -8.536086978098322 0 0 0
412 1 20.486610491999997 44.387656066 -10.243305245999998 0 0 0
413 2 25.608263115000035 46.09487360700001 -8.536086978098295 0 0 0
420 1 27.315480656 44.387656066 -10.243305245999998 0 0 0
421 2 32.437133278999994 46.094873606999975 -8.536086978098313 0 0 0
428 1 34.14435082 44.387656066 -10.243305245999998 0 0 0
429 2 39.26600344299995 46.094873606999975 -8.536086978098293 0 0 0
436 1 40.973220983999994 44.387656066 -10.243305245999998 0 0 0
437 2 46.09487360700004 46.094873606999975 -8.53608697809829 0 0 0
444 1 47.802091147999995 44.387656066 -10.243305245999998 0 0 0
445 2 52.923743770999955 46.09487360699996 -8.536086978098318 0 0 0
450 1 3.414435082 47.802091147999995 -10.243305245999998 0 0 0
458 1 10.243305245999998 47.802091147999995 -10.243305245999998 0 0 0
466 1 17.07217541 47.802091147999995 -10.243305245999998 0 0 0
474 1 23.901045573999998 47.802091147999995 -10.243305245999998 0 0 0
482 1 30.729915738 47.802091147999995 -10.243305245999998 0 0 0
490 1 37.558785902 47.802091147999995 -10.243305245999998 0 0 0
498 1 44.387656066 47.802091147999995 -10.243305245999998 0 0 0
506 1 51.21652623 47.802091147999995 -10.243305245999998 0 0 0
452 1 0 51.21652623 -10.243305245999998 0 0 0
455 2 1.7072175409999581 49.50930868899995 -8.53608697809833 0 0 0
460 1 6.828870164 51.21652623 -10.243305245999998 0 0 0
463 2 8.53608770500003 49.50930868900003 -8.53608697809831 0 0 0
468 1 13.657740328 51.21652623 -10.243305245999998 0 0 0
471 2 15.364957869000023 49.509308689000015 -8.536086978098306 0 0 0
476 1 20.486610491999997 51.21652623 -10.243305245999998 0 0 0