LAMMPS data file via write_data, version 29 Sep 2021, timestep = 43

1250 atoms
2 atom types

0 34.14435082 xlo xhi
0 34.14435082 ylo yhi
-13.657740328 54.630961312 zlo zhi

Masses

1 112.411
2 127.6

Atoms # atomic

1 1 0 0 -13.657740328 0 0 0
8 2 5.121652622999999 1.707217541 -11.950522786999999 0 0 0
9 1 6.828870164 0 -13.657740328 0 0 0
16 2 11.950522786999999 1.707217541 -11.950522786999999 0 0 0
17 1 13.657740328 0 -13.657740328 0 0 0
24 2 18.779392951 1.707217541 -11.950522786999999 0 0 0
25 1 20.486610491999997 0 -13.657740328 0 0 0
32 2 25.608263115 1.707217541 -11.950522786999999 0 0 0
33 1 27.315480656 0 -13.657740328 0 0 0
40 2 32.437133279 1.707217541 -11.950522786999999 0 0 0
6 2 1.707217541 5.121652622999999 -11.950522786999999 0 0 0
3 1 3.414435082 3.414435082 -13.657740328 0 0 0
11 1 10.243305245999998 3.414435082 -13.657740328 0 0 0
14 2 8.536087705 5.121652622999999 -11.950522786999999 0 0 0
22 2 15.364957869 5.121652622999999 -11.950522786999999 0 0 0
19 1 17.07217541 3.414435082 -13.657740328 0 0 0
30 2 22.193828033 5.121652622999999 -11.950522786999999 0 0 0
27 1 23.901045573999998 3.414435082 -13.657740328 0 0 0
35 1 30.729915738 3.414435082 -13.657740328 0 0 0
38 2 29.022698196999997 5.121652622999999 -11.950522786999999 0 0 0
41 1 0 6.828870164 -13.657740328 0 0 0
49 1 6.828870164 6.828870164 -13.657740328 0 0 0
57 1 13.657740328 6.828870164 -13.657740328 0 0 0
65 1 20.486610491999997 6.828870164 -13.657740328 0 0 0
73 1 27.315480656 6.828870164 -13.657740328 0 0 0
43 1 3.414435082 10.243305245999998 -13.657740328 0 0 0
48 2 5.121652622999999 8.536087705 -11.950522786999999 0 0 0
51 1 10.243305245999998 10.243305245999998 -13.657740328 0 0 0
56 2 11.950522786999999 8.536087705 -11.950522786999999 0 0 0
59 1 17.07217541 10.243305245999998 -13.657740328 0 0 0
64 2 18.779392951 8.536087705 -11.950522786999999 0 0 0
67 1 23.901045573999998 10.243305245999998 -13.657740328 0 0 0
72 2 25.608263115 8.536087705 -11.950522786999999 0 0 0
75 1 30.729915738 10.243305245999998 -13.657740328 0 0 0
80 2 32.437133279 8.536087705 -11.950522786999999 0 0 0
46 2 1.707217541 11.950522786999999 -11.950522786999999 0 0 0
54 2 8.536087705 11.950522786999999 -11.950522786999999 0 0 0
62 2 15.364957869 11.950522786999999 -11.950522786999999 0 0 0
70 2 22.193828033 11.950522786999999 -11.950522786999999 0 0 0
78 2 29.022698196999997 11.950522786999999 -11.950522786999999 0 0 0
81 1 0 13.657740328 -13.657740328 0 0 0
88 2 5.121652622999999 15.364957869 -11.950522786999999 0 0 0
89 1 6.828870164 13.657740328 -13.657740328 0 0 0
96 2 11.950522786999999 15.364957869 -11.950522786999999 0 0 0
97 1 13.657740328 13.657740328 -13.657740328 0 0 0
104 2 18.779392951 15.364957869 -11.950522786999999 0 0 0
105 1 20.486610491999997 13.657740328 -13.657740328 0 0 0
112 2 25.608263115 15.364957869 -11.950522786999999 0 0 0
113 1 27.315480656 13.657740328 -13.657740328 0 0 0
120 2 32.437133279 15.364957869 -11.950522786999999 0 0 0
83 1 3.414435082 17.07217541 -13.657740328 0 0 0
91 1 10.243305245999998 17.07217541 -13.657740328 0 0 0
99 1 17.07217541 17.07217541 -13.657740328 0 0 0
107 1 23.901045573999998 17.07217541 -13.657740328 0 0 0
115 1 30.729915738 17.07217541 -13.657740328 0 0 0
86 2 1.707217541 18.779392951 -11.950522786999999 0 0 0
121 1 0 20.486610491999997 -13.657740328 0 0 0
129 1 6.828870164 20.486610491999997 -13.657740328 0 0 0
94 2 8.536087705 18.779392951 -11.950522786999999 0 0 0
102 2 15.364957869 18.779392951 -11.950522786999999 0 0 0
137 1 13.657740328 20.486610491999997 -13.657740328 0 0 0
145 1 20.486610491999997 20.486610491999997 -13.657740328 0 0 0
110 2 22.193828033 18.779392951 -11.950522786999999 0 0 0
153 1 27.315480656 20.486610491999997 -13.657740328 0 0 0
118 2 29.022698196999997 18.779392951 -11.950522786999999 0 0 0
128 2 5.121652622999999 22.193828033 -11.950522786999999 0 0 0
136 2 11.950522786999999 22.193828033 -11.950522786999999 0 0 0
144 2 18.779392951 22.193828033 -11.950522786999999 0 0 0
152 2 25.608263115 22.193828033 -11.950522786999999 0 0 0
160 2 32.437133279 22.193828033 -11.950522786999999 0 0 0
126 2 1.707217541 25.608263115 -11.950522786999999 0 0 0
123 1 3.414435082 23.901045573999998 -13.657740328 0 0 0
131 1 10.243305245999998 23.901045573999998 -13.657740328 0 0 0
134 2 8.536087705 25.608263115 -11.950522786999999 0 0 0
142 2 15.364957869 25.608263115 -11.950522786999999 0 0 0
139 1 17.07217541 23.901045573999998 -13.657740328 0 0 0
150 2 22.193828033 25.608263115 -11.950522786999999 0 0 0
147 1 23.901045573999998 23.901045573999998 -13.657740328 0 0 0
155 1 30.729915738 23.901045573999998 -13.657740328 0 0 0
158 2 29.022698196999997 25.608263115 -11.950522786999999 0 0 0
161 1 0 27.315480656 -13.657740328 0 0 0
169 1 6.828870164 27.315480656 -13.657740328 0 0 0
177 1 13.657740328 27.315480656 -13.657740328 0 0 0
185 1 20.486610491999997 27.315480656 -13.657740328 0 0 0
193 1 27.315480656 27.315480656 -13.657740328 0 0 0
163 1 3.414435082 30.729915738 -13.657740328 0 0 0
168 2 5.121652622999999 29.022698196999997 -11.950522786999999 0 0 0
171 1 10.243305245999998 30.729915738 -13.657740328 0 0 0
176 2 11.950522786999999 29.022698196999997 -11.950522786999999 0 0 0
179 1 17.07217541 30.729915738 -13.657740328 0 0 0
184 2 18.779392951 29.022698196999997 -11.950522786999999 0 0 0
187 1 23.901045573999998 30.729915738 -13.657740328 0 0 0
192 2 25.608263115 29.022698196999997 -11.950522786999999 0 0 0
195 1 30.729915738 30.729915738 -13.657740328 0 0 0
200 2 32.437133279 29.022698196999997 -11.950522786999999 0 0 0
166 2 1.707217541 32.437133279 -11.950522786999999 0 0 0
174 2 8.536087705 32.437133279 -11.950522786999999 0 0 0
182 2 15.364957869 32.437133279 -11.950522786999999 0 0 0
190 2 22.193828033 32.437133279 -11.950522786999999 0 0 0
198 2 29.022698196999997 32.437133279 -11.950522786999999 0 0 0
7 2 1.7072175409999968 1.7072175409999981 -8.53608710691829 0 0 0
2 1 3.414435082 0 -10.243305245999998 0 0 0
10 1 10.243305245999998 0 -10.243305245999998 0 0 0
15 2 8.536087704999996 1.7072175409999957 -8.536087106918288 0 0 0
23 2 15.364957868999996 1.7072175409999975 -8.536087106918293 0 0 0
18 1 17.07217541 0 -10.243305245999998 0 0 0
31 2 22.193828033 1.707217541000001 -8.53608710691829 0 0 0
26 1 23.901045573999998 0 -10.243305245999998 0 0 0
34 1 30.729915738 0 -10.243305245999998 0 0 0
39 2 29.022698197 1.7072175410000006 -8.536087106918291 0 0 0
4 1 0 3.414435082 -10.243305245999998 0 0 0
5 2 5.121652622999999 5.121652622999998 -8.53608710691829 0 0 0
12 1 6.828870164 3.414435082 -10.243305245999998 0 0 0
13 2 11.950522786999999 5.121652623 -8.536087106918291 0 0 0
20 1 13.657740328 3.414435082 -10.243305245999998 0 0 0
21 2 18.779392950999995 5.121652623000001 -8.53608710691829 0 0 0
28 1 20.486610491999997 3.414435082 -10.243305245999998 0 0 0
29 2 25.608263114999996 5.121652622999998 -8.536087106918288 0 0 0
36 1 27.315480656 3.414435082 -10.243305245999998 0 0 0
37 2 32.437133279 5.121652622999999 -8.53608710691829 0 0 0
42 1 3.414435082 6.828870164 -10.243305245999998 0 0 0
50 1 10.243305245999998 6.828870164 -10.243305245999998 0 0 0
58 1 17.07217541 6.828870164 -10.243305245999998 0 0 0
66 1 23.901045573999998 6.828870164 -10.243305245999998 0 0 0
74 1 30.729915738 6.828870164 -10.243305245999998 0 0 0
44 1 0 10.243305245999998 -10.243305245999998 0 0 0
47 2 1.7072175410000006 8.536087704999998 -8.53608710691829 0 0 0
52 1 6.828870164 10.243305245999998 -10.243305245999998 0 0 0
55 2 8.536087705000003 8.536087705000003 -8.536087106918288 0 0 0
60 1 13.657740328 10.243305245999998 -10.243305245999998 0 0 0
63 2 15.364957869000001 8.536087705 -8.536087106918291 0 0 0
68 1 20.486610491999997 10.243305245999998 -10.243305245999998 0 0 0
71 2 22.193828033 8.536087704999996 -8.536087106918288 0 0 0
76 1 27.315480656 10.243305245999998 -10.243305245999998 0 0 0
79 2 29.022698196999997 8.536087704999998 -8.53608710691829 0 0 0
45 2 5.121652622999998 11.950522786999997 -8.536087106918291 0 0 0
53 2 11.950522786999997 11.950522786999999 -8.536087106918291 0 0 0
61 2 18.779392951 11.950522786999995 -8.536087106918288 0 0 0
69 2 25.608263114999996 11.950522786999995 -8.536087106918291 0 0 0
77 2 32.437133279 11.950522786999997 -8.536087106918291 0 0 0
87 2 1.7072175409999988 15.364957868999998 -8.536087106918293 0 0 0
82 1 3.414435082 13.657740328 -10.243305245999998 0 0 0
90 1 10.243305245999998 13.657740328 -10.243305245999998 0 0 0
95 2 8.536087704999998 15.364957868999998 -8.53608710691829 0 0 0
103 2 15.364957868999996 15.364957868999996 -8.536087106918293 0 0 0
98 1 17.07217541 13.657740328 -10.243305245999998 0 0 0
111 2 22.193828032999996 15.364957869 -8.536087106918288 0 0 0
106 1 23.901045573999998 13.657740328 -10.243305245999998 0 0 0
114 1 30.729915738 13.657740328 -10.243305245999998 0 0 0
119 2 29.022698196999997 15.364957868999994 -8.53608710691829 0 0 0
84 1 0 17.07217541 -10.243305245999998 0 0 0
92 1 6.828870164 17.07217541 -10.243305245999998 0 0 0
100 1 13.657740328 17.07217541 -10.243305245999998 0 0 0
108 1 20.486610491999997 17.07217541 -10.243305245999998 0 0 0
116 1 27.315480656 17.07217541 -10.243305245999998 0 0 0
85 2 5.121652622999998 18.779392951 -8.53608710691829 0 0 0
122 1 3.414435082 20.486610491999997 -10.243305245999998 0 0 0
130 1 10.243305245999998 20.486610491999997 -10.243305245999998 0 0 0
93 2 11.950522786999999 18.779392951 -8.536087106918288 0 0 0
138 1 17.07217541 20.486610491999997 -10.243305245999998 0 0 0
101 2 18.779392950999995 18.779392951 -8.536087106918288 0 0 0
109 2 25.608263115 18.779392951 -8.536087106918284 0 0 0
146 1 23.901045573999998 20.486610491999997 -10.243305245999998 0 0 0
154 1 30.729915738 20.486610491999997 -10.243305245999998 0 0 0
117 2 32.437133278999994 18.779392951000002 -8.53608710691829 0 0 0
127 2 1.707217541000001 22.193828033 -8.536087106918291 0 0 0
135 2 8.536087705 22.193828033 -8.53608710691829 0 0 0
143 2 15.364957868999998 22.193828032999996 -8.536087106918291 0 0 0
151 2 22.193828033 22.193828033000003 -8.536087106918291 0 0 0
159 2 29.022698197 22.193828033 -8.53608710691829 0 0 0
124 1 0 23.901045573999998 -10.243305245999998 0 0 0
125 2 5.121652623000002 25.608263114999996 -8.53608710691829 0 0 0
132 1 6.828870164 23.901045573999998 -10.243305245999998 0 0 0
133 2 11.950522786999999 25.608263114999996 -8.53608710691829 0 0 0
140 1 13.657740328 23.901045573999998 -10.243305245999998 0 0 0
141 2 18.779392951 25.608263115 -8.53608710691829 0 0 0
148 1 20.486610491999997 23.901045573999998 -10.243305245999998 0 0 0
149 2 25.608263114999996 25.608263114999996 -8.536087106918288 0 0 0
156 1 27.315480656 23.901045573999998 -10.243305245999998 0 0 0
157 2 32.437133279 25.608263115000003 -8.536087106918291 0 0 0
162 1 3.414435082 27.315480656 -10.243305245999998 0 0 0
170 1 10.243305245999998 27.315480656 -10.243305245999998 0 0 0
178 1 17.07217541 27.315480656 -10.243305245999998 0 0 0
186 1 23.901045573999998 27.315480656 -10.243305245999998 0 0 0
194 1 30.729915738 27.315480656 -10.243305245999998 0 0 0
164 1 0 30.729915738 -10.243305245999998 0 0 0
167 2 1.7072175409999948 29.022698196999993 -8.536087106918291 0 0 0
172 1 6.828870164 30.729915738 -10.243305245999998 0 0 0
175 2 8.536087704999996 29.022698196999997 -8.536087106918293 0 0 0
180 1 13.657740328 30.729915738 -10.243305245999998 0 0 0
183 2 15.364957869000001 29.022698196999997 -8.536087106918291 0 0 0
188 1 20.486610491999997 30.729915738 -10.243305245999998 0 0 0
191 2 22.193828033 29.022698197 -8.536087106918293 0 0 0
196 1 27.315480656 30.729915738 -10.243305245999998 0 0 0
199 2 29.022698196999997 29.022698197 -8.536087106918291 0 0 0
165 2 5.121652622999993 32.437133279 -8.536087106918288 0 0 0
173 2 11.950522786999999 32.437133279 -8.53608710691829 0 0 0
181 2 18.779392950999995 32.437133279 -8.536087106918291 0 0 0
189 2 25.608263114999996 32.437133278999994 -8.536087106918295 0 0 0
197 2 32.437133278999994 32.437133279 -8.536087106918288 0 0 0
201 1 0 2.1572660374070808e-16 -6.828868956325893 0 0 0
209 1 6.828870164 3.5470775487804026e-15 -6.82886895632589 0 0 0
217 1 13.657740327999997 6.591221129144013e-15 -6.828868956325897 0 0 0
225 1 20.486610492 1.946570558742245e-15 -6.828868956325892 0 0 0
233 1 27.315480656000002 0 -6.82886895632589 0 0 0
203 1 3.414435081999998 3.4144350820000002 -6.828868956325891 0 0 0
211 1 10.243305245999998 3.414435082000002 -6.828868956325889 0 0 0
219 1 17.072175410000003 3.4144350820000007 -6.82886895632589 0 0 0
227 1 23.901045573999998 3.414435081999999 -6.828868956325892 0 0 0
235 1 30.729915738 3.4144350820000002 -6.8288689563258895 0 0 0
241 1 0 6.828870164 -6.82886895632589 0 0 0
249 1 6.828870163999997 6.828870164 -6.828868956325889 0 0 0
257 1 13.657740328000001 6.828870164 -6.828868956325893 0 0 0
265 1 20.486610492 6.828870164000001 -6.828868956325893 0 0 0
273 1 27.315480656 6.8288701640000005 -6.828868956325893 0 0 0
243 1 3.4144350820000002 10.243305246 -6.82886895632589 0 0 0
251 1 10.243305245999998 10.243305245999998 -6.828868956325892 0 0 0
259 1 17.07217541 10.243305245999997 -6.828868956325891 0 0 0
267 1 23.901045573999998 10.243305246 -6.82886895632589 0 0 0
275 1 30.729915738000003 10.243305246 -6.828868956325892 0 0 0
281 1 0 13.657740328000001 -6.8288689563258895 0 0 0
289 1 6.828870164000004 13.657740327999996 -6.82886895632589 0 0 0
297 1 13.657740328 13.657740327999997 -6.828868956325893 0 0 0
305 1 20.486610492 13.657740328 -6.828868956325892 0 0 0
313 1 27.315480656 13.657740328000003 -6.828868956325892 0 0 0
283 1 3.414435082000002 17.07217541 -6.82886895632589 0 0 0
291 1 10.243305245999997 17.072175410000003 -6.828868956325891 0 0 0
299 1 17.07217541 17.072175410000003 -6.828868956325888 0 0 0
307 1 23.901045573999998 17.072175409999996 -6.828868956325893 0 0 0
315 1 30.729915738000003 17.072175410000003 -6.82886895632589 0 0 0
321 1 3.059154103472064e-15 20.486610491999997 -6.828868956325886 0 0 0
329 1 6.828870164000003 20.486610491999997 -6.82886895632589 0 0 0
337 1 13.657740327999997 20.486610492 -6.828868956325893 0 0 0
345 1 20.486610491999997 20.486610491999997 -6.828868956325889 0 0 0
353 1 27.315480656 20.486610492 -6.828868956325888 0 0 0
323 1 3.414435082 23.90104557399999 -6.82886895632589 0 0 0
331 1 10.243305245999995 23.901045574 -6.828868956325895 0 0 0
339 1 17.07217541 23.901045574 -6.8288689563258895 0 0 0
347 1 23.901045573999998 23.901045573999994 -6.828868956325894 0 0 0
355 1 30.729915737999995 23.901045574 -6.828868956325892 0 0 0
361 1 6.3759091759026644e-15 27.315480656 -6.82886895632589 0 0 0
369 1 6.828870163999998 27.315480656000002 -6.828868956325895 0 0 0
377 1 13.657740328000001 27.315480656000002 -6.828868956325892 0 0 0
385 1 20.486610491999997 27.315480656 -6.828868956325891 0 0 0
393 1 27.315480656 27.315480655999995 -6.828868956325895 0 0 0
363 1 3.4144350820000025 30.729915738000006 -6.8288689563258895 0 0 0
371 1 10.243305246 30.729915738000003 -6.828868956325893 0 0 0
379 1 17.072175409999996 30.729915738000003 -6.82886895632589 0 0 0
387 1 23.901045573999998 30.729915738 -6.828868956325892 0 0 0
395 1 30.729915738000006 30.729915737999992 -6.828868956325895 0 0 0
202 1 3.4144350820000007 4.123415347035399e-15 -3.4144326750133165 0 0 0
208 2 5.121652622999998 1.7072175409999961 -5.1216508281015 0 0 0
210 1 10.243305246000002 2.442240000353744e-15 -3.4144326750133183 0 0 0
216 2 11.950522786999995 1.7072175409999997 -5.121650828101495 0 0 0
218 1 17.07217541 3.4639583669865804e-15 -3.414432675013319 0 0 0
224 2 18.779392951 1.7072175409999977 -5.121650828101499 0 0 0
226 1 23.90104557400001 0 -3.414432675013318 0 0 0
232 2 25.608263114999993 1.7072175410000003 -5.121650828101496 0 0 0
234 1 30.72991573799999 1.372142351908818e-15 -3.4144326750133263 0 0 0
240 2 32.437133279 1.707217540999999 -5.121650828101497 0 0 0
204 1 0 3.4144350819999953 -3.4144326750133196 0 0 0
206 2 1.7072175409999983 5.121652623000001 -5.121650828101496 0 0 0
212 1 6.828870163999996 3.414435081999999 -3.414432675013316 0 0 0
214 2 8.536087704999998 5.121652623 -5.121650828101497 0 0 0
220 1 13.657740328000001 3.4144350819999985 -3.414432675013317 0 0 0
222 2 15.364957868999998 5.1216526229999975 -5.121650828101496 0 0 0
228 1 20.486610491999997 3.4144350819999985 -3.4144326750133187 0 0 0
230 2 22.193828033 5.121652623 -5.121650828101496 0 0 0
236 1 27.315480655999995 3.4144350820000042 -3.4144326750133183 0 0 0
238 2 29.022698197000004 5.121652622999997 -5.1216508281015 0 0 0
242 1 3.4144350820000007 6.828870163999998 -3.4144326750133183 0 0 0
250 1 10.243305245999998 6.828870163999999 -3.414432675013317 0 0 0
258 1 17.07217541 6.828870164 -3.4144326750133174 0 0 0
266 1 23.901045573999994 6.828870163999998 -3.4144326750133183 0 0 0
274 1 30.729915738000003 6.828870164000002 -3.4144326750133174 0 0 0
244 1 0 10.243305246 -3.414432675013315 0 0 0
248 2 5.121652622999997 8.536087705 -5.121650828101497 0 0 0
252 1 6.8288701640000005 10.243305246 -3.4144326750133174 0 0 0
256 2 11.950522786999997 8.536087705000002 -5.121650828101496 0 0 0
260 1 13.657740327999996 10.243305246000002 -3.4144326750133205 0 0 0
264 2 18.779392951000002 8.536087704999998 -5.121650828101497 0 0 0
268 1 20.486610491999997 10.243305245999998 -3.4144326750133196 0 0 0
272 2 25.608263115 8.536087704999996 -5.121650828101498 0 0 0
276 1 27.315480655999995 10.243305246 -3.41443267501332 0 0 0
280 2 32.437133278999994 8.536087704999996 -5.121650828101496 0 0 0
246 2 1.7072175410000021 11.950522786999999 -5.121650828101496 0 0 0
254 2 8.536087704999996 11.950522787 -5.121650828101496 0 0 0
262 2 15.364957868999996 11.950522786999997 -5.121650828101495 0 0 0
270 2 22.193828033 11.950522787 -5.121650828101496 0 0 0
278 2 29.022698196999997 11.950522786999997 -5.121650828101492 0 0 0
282 1 3.414435081999998 13.657740327999996 -3.4144326750133165 0 0 0
288 2 5.121652622999999 15.364957869000001 -5.121650828101496 0 0 0
290 1 10.243305246 13.657740328 -3.414432675013319 0 0 0
296 2 11.950522786999999 15.364957868999998 -5.121650828101494 0 0 0
298 1 17.072175410000003 13.657740328 -3.4144326750133214 0 0 0
304 2 18.779392951 15.364957868999996 -5.121650828101496 0 0 0
306 1 23.901045573999998 13.657740328000001 -3.4144326750133214 0 0 0
312 2 25.608263115000003 15.364957868999998 -5.121650828101496 0 0 0
314 1 30.729915738 13.657740328000001 -3.414432675013319 0 0 0
320 2 32.437133279 15.364957868999996 -5.121650828101499 0 0 0
284 1 1.8818417060855905e-15 17.072175409999996 -3.414432675013317 0 0 0
292 1 6.8288701640000005 17.072175409999996 -3.414432675013317 0 0 0
300 1 13.657740328 17.07217541 -3.414432675013319 0 0 0
308 1 20.486610491999997 17.07217541 -3.414432675013315 0 0 0
316 1 27.315480656 17.072175409999996 -3.414432675013321 0 0 0
286 2 1.7072175409999994 18.779392951000002 -5.121650828101497 0 0 0
322 1 3.414435082000002 20.486610491999993 -3.414432675013312 0 0 0
294 2 8.536087705 18.779392951000002 -5.121650828101498 0 0 0
330 1 10.243305245999997 20.486610491999997 -3.414432675013318 0 0 0
302 2 15.364957869000001 18.779392951 -5.1216508281014965 0 0 0
338 1 17.07217541 20.486610491999997 -3.4144326750133183 0 0 0
310 2 22.193828032999996 18.779392951 -5.1216508281015 0 0 0
346 1 23.901045574 20.486610491999997 -3.4144326750133187 0 0 0
318 2 29.022698197 18.779392950999995 -5.121650828101494 0 0 0
354 1 30.729915738 20.486610491999997 -3.414432675013315 0 0 0
328 2 5.121652622999998 22.193828033000003 -5.121650828101497 0 0 0
336 2 11.950522787000002 22.193828033 -5.1216508281014965 0 0 0
344 2 18.779392951 22.193828033000003 -5.1216508281015 0 0 0
352 2 25.608263115 22.193828032999996 -5.1216508281014965 0 0 0
360 2 32.437133279 22.193828033 -5.1216508281014965 0 0 0
324 1 5.9023885004542745e-15 23.901045573999994 -3.4144326750133187 0 0 0
326 2 1.7072175409999957 25.608263115 -5.121650828101498 0 0 0
332 1 6.828870164000001 23.901045573999994 -3.414432675013318 0 0 0
334 2 8.536087705000002 25.608263115 -5.121650828101493 0 0 0
340 1 13.657740328000003 23.901045573999998 -3.414432675013323 0 0 0
342 2 15.364957868999994 25.608263114999996 -5.121650828101493 0 0 0
348 1 20.486610492 23.901045573999998 -3.4144326750133174 0 0 0
350 2 22.193828033000003 25.608263115 -5.121650828101494 0 0 0
356 1 27.315480656 23.901045573999998 -3.41443267501332 0 0 0
358 2 29.022698197 25.608263115 -5.121650828101496 0 0 0
362 1 3.4144350820000007 27.315480656 -3.4144326750133205 0 0 0
370 1 10.243305246000002 27.315480655999995 -3.4144326750133196 0 0 0
378 1 17.07217541 27.315480655999995 -3.414432675013318 0 0 0
386 1 23.901045573999994 27.315480655999995 -3.414432675013319 0 0 0
394 1 30.72991573800001 27.315480655999995 -3.41443267501332 0 0 0
364 1 0 30.729915738000003 -3.4144326750133223 0 0 0
368 2 5.1216526229999975 29.022698196999993 -5.121650828101495 0 0 0
372 1 6.8288701640000005 30.729915738000006 -3.4144326750133174 0 0 0
376 2 11.950522787000002 29.022698197 -5.121650828101492 0 0 0
380 1 13.657740328000001 30.729915737999995 -3.4144326750133214 0 0 0
384 2 18.779392951 29.022698196999993 -5.1216508281014965 0 0 0
388 1 20.486610491999997 30.729915738000003 -3.414432675013318 0 0 0
392 2 25.608263115000007 29.022698197000004 -5.121650828101496 0 0 0
396 1 27.315480655999995 30.729915737999985 -3.414432675013317 0 0 0
400 2 32.437133278999994 29.022698197 -5.121650828101496 0 0 0
366 2 1.7072175409999977 32.437133278999994 -5.121650828101494 0 0 0
374 2 8.536087704999996 32.437133278999994 -5.1216508281014965 0 0 0
382 2 15.364957869000001 32.437133278999994 -5.121650828101496 0 0 0
390 2 22.193828032999996 32.437133279 -5.121650828101498 0 0 0
398 2 29.022698197000004 32.43713327900001 -5.1216508281014965 0 0 0
207 2 1.7072175410000061 1.7072175410000063 -1.7072145120254516 0 0 0
215 2 8.536087704999998 1.707217540999998 -1.7072145120254516 0 0 0
223 2 15.364957869000003 1.7072175410000034 -1.7072145120254532 0 0 0
231 2 22.193828032999996 1.7072175410000014 -1.707214512025448 0 0 0
239 2 29.022698197 1.7072175409999986 -1.7072145120254507 0 0 0
205 2 5.121652622999999 5.121652623000001 -1.7072145120254516 0 0 0
213 2 11.950522786999999 5.121652622999998 -1.7072145120254538 0 0 0
221 2 18.779392951000002 5.121652623000003 -1.7072145120254516 0 0 0
229 2 25.608263115000003 5.121652622999997 -1.707214512025451 0 0 0
237 2 32.437133278999994 5.121652623 -1.7072145120254496 0 0 0
247 2 1.7072175409999986 8.536087704999998 -1.7072145120254496 0 0 0
255 2 8.536087704999996 8.536087705000002 -1.7072145120254516 0 0 0
263 2 15.364957868999998 8.536087705 -1.7072145120254516 0 0 0
271 2 22.193828033 8.536087704999998 -1.7072145120254514 0 0 0
279 2 29.022698197 8.536087705000003 -1.70721451202545 0 0 0
245 2 5.121652622999993 11.950522787 -1.7072145120254536 0 0 0
253 2 11.950522786999995 11.950522786999997 -1.7072145120254512 0 0 0
261 2 18.779392951 11.950522787 -1.7072145120254527 0 0 0
269 2 25.608263115 11.950522787 -1.7072145120254463 0 0 0
277 2 32.437133279 11.950522786999997 -1.7072145120254527 0 0 0
287 2 1.7072175410000014 15.364957869000003 -1.7072145120254503 0 0 0
295 2 8.536087704999995 15.364957869 -1.7072145120254527 0 0 0
303 2 15.364957868999998 15.364957868999996 -1.7072145120254503 0 0 0
311 2 22.193828033000003 15.364957869 -1.7072145120254503 0 0 0
319 2 29.022698197000004 15.364957868999998 -1.7072145120254492 0 0 0
285 2 5.121652622999998 18.779392951000005 -1.7072145120254538 0 0 0
293 2 11.950522786999999 18.779392951 -1.7072145120254494 0 0 0
301 2 18.779392951 18.779392950999995 -1.7072145120254505 0 0 0
309 2 25.608263115 18.779392951000002 -1.7072145120254474 0 0 0
317 2 32.437133279 18.779392951000005 -1.7072145120254507 0 0 0
327 2 1.7072175409999994 22.193828033000006 -1.7072145120254536 0 0 0
335 2 8.536087704999998 22.193828033000003 -1.707214512025454 0 0 0
343 2 15.364957869000001 22.193828033 -1.7072145120254465 0 0 0
351 2 22.193828032999996 22.193828033 -1.7072145120254543 0 0 0
359 2 29.022698197 22.193828033 -1.7072145120254532 0 0 0
325 2 5.121652622999996 25.608263115 -1.7072145120254474 0 0 0
333 2 11.950522786999995 25.608263114999996 -1.70721451202545 0 0 0
341 2 18.779392950999995 25.608263115 -1.7072145120254514 0 0 0
349 2 25.608263114999996 25.608263115000003 -1.707214512025453 0 0 0
357 2 32.437133278999994 25.608263115000003 -1.7072145120254507 0 0 0
367 2 1.7072175409999977 29.022698196999993 -1.7072145120254454 0 0 0
375 2 8.536087704999998 29.022698196999997 -1.7072145120254467 0 0 0
383 2 15.364957868999998 29.022698197000004 -1.7072145120254534 0 0 0
391 2 22.193828032999996 29.022698197 -1.7072145120254498 0 0 0
399 2 29.022698196999997 29.022698197000008 -1.7072145120254458 0 0 0
365 2 5.121652622999994 32.437133278999994 -1.707214512025452 0 0 0
373 2 11.950522786999995 32.437133279 -1.7072145120254447 0 0 0
381 2 18.779392951 32.437133279 -1.7072145120254474 0 0 0
389 2 25.608263114999996 32.43713327900001 -1.7072145120254552 0 0 0
397 2 32.437133279000015 32.437133279 -1.7072145120254445 0 0 0
401 1 34.144350819999985 34.14435081999999 3.6629282327118893e-06 -1 -1 0
408 2 5.1216526229999975 1.707217541000001 1.7072217260911096 0 0 0
409 1 6.828870164000002 1.8242434892750427e-16 3.6629282400296924e-06 0 0 0
416 2 11.950522786999999 1.7072175410000003 1.707221726091109 0 0 0
417 1 13.657740328 34.14435081999999 3.662928241357081e-06 0 -1 0
424 2 18.779392951000002 1.7072175410000057 1.707221726091112 0 0 0
425 1 20.486610492 34.14435081999999 3.662928237730583e-06 0 -1 0
432 2 25.608263115 1.7072175410000023 1.7072217260911093 0 0 0
433 1 27.315480655999995 34.14435081999999 3.6629282394178813e-06 0 -1 0
440 2 32.437133279 1.7072175410000063 1.7072217260911091 0 0 0
406 2 1.707217540999999 5.121652623000004 1.707221726091104 0 0 0
403 1 3.414435081999996 3.4144350819999945 3.662928235843036e-06 0 0 0
411 1 10.243305246000002 3.4144350819999976 3.6629282400566814e-06 0 0 0
414 2 8.536087704999998 5.121652623000001 1.7072217260911078 0 0 0
422 2 15.364957869 5.121652622999998 1.707221726091109 0 0 0
419 1 17.07217541 3.4144350819999985 3.66292823606949e-06 0 0 0
430 2 22.193828033000003 5.121652623000005 1.707221726091109 0 0 0
427 1 23.901045573999998 3.4144350820000007 3.6629282369647663e-06 0 0 0
435 1 30.729915738 3.4144350819999976 3.6629282366639862e-06 0 0 0
438 2 29.022698196999997 5.121652623000001 1.7072217260911096 0 0 0
441 1 2.0718260942173485e-15 6.828870163999999 3.6629282400719267e-06 0 0 0
449 1 6.828870164 6.828870164 3.6629282388775357e-06 0 0 0
457 1 13.657740328000001 6.828870164000001 3.662928238288525e-06 0 0 0
465 1 20.486610492 6.828870163999996 3.6629282374596055e-06 0 0 0
473 1 27.315480656000002 6.828870164000001 3.662928235381697e-06 0 0 0
443 1 3.4144350820000002 10.243305245999998 3.66292823777205e-06 0 0 0
448 2 5.121652622999998 8.536087705 1.707221726091107 0 0 0
451 1 10.243305246000002 10.243305246 3.6629282372740642e-06 0 0 0
456 2 11.950522786999997 8.536087704999998 1.7072217260911065 0 0 0
459 1 17.072175410000003 10.243305245999997 3.6629282402926135e-06 0 0 0
464 2 18.779392950999995 8.536087705 1.7072217260911082 0 0 0
467 1 23.901045573999998 10.243305246 3.6629282383760664e-06 0 0 0
472 2 25.608263115000003 8.536087705000002 1.7072217260911118 0 0 0
475 1 30.729915737999995 10.243305245999997 3.6629282397039595e-06 0 0 0
480 2 32.437133279 8.536087705000003 1.7072217260911058 0 0 0
446 2 1.707217541 11.950522787 1.7072217260911065 0 0 0
454 2 8.536087704999996 11.950522786999999 1.7072217260911065 0 0 0
462 2 15.364957868999998 11.950522786999999 1.707221726091108 0 0 0
470 2 22.193828033 11.950522786999995 1.7072217260911087 0 0 0
478 2 29.022698196999997 11.950522787000004 1.7072217260911078 0 0 0
481 1 0 13.657740327999997 3.6629282417699715e-06 0 0 0
488 2 5.121652622999993 15.364957869000001 1.7072217260911045 0 0 0
489 1 6.828870164 13.657740328 3.662928241190357e-06 0 0 0
496 2 11.950522786999995 15.364957869 1.7072217260911062 0 0 0
497 1 13.657740328000001 13.657740328000001 3.662928239652121e-06 0 0 0
504 2 18.779392951000002 15.364957869 1.7072217260911098 0 0 0
505 1 20.486610491999993 13.657740328000001 3.6629282390242054e-06 0 0 0
512 2 25.608263114999993 15.364957868999998 1.7072217260911067 0 0 0
513 1 27.315480656000002 13.657740328000003 3.6629282382874168e-06 0 0 0
520 2 32.437133279 15.364957869000003 1.7072217260911078 0 0 0
483 1 3.414435082000002 17.07217540999999 3.6629282406234726e-06 0 0 0
491 1 10.243305246000002 17.072175409999996 3.6629282392866895e-06 0 0 0
499 1 17.072175409999996 17.07217541 3.662928240779421e-06 0 0 0
507 1 23.901045574 17.072175409999996 3.6629282402473587e-06 0 0 0
515 1 30.729915737999995 17.072175409999996 3.66292823967778e-06 0 0 0
486 2 1.7072175409999968 18.779392951000005 1.7072217260911042 0 0 0
521 1 0 20.486610491999993 3.6629282408962096e-06 0 0 0
529 1 6.828870164 20.486610491999993 3.662928238469502e-06 0 0 0
494 2 8.536087704999995 18.779392951 1.7072217260911082 0 0 0
502 2 15.364957869000003 18.779392951 1.707221726091107 0 0 0
537 1 13.657740328 20.486610491999997 3.6629282359360334e-06 0 0 0
545 1 20.486610492 20.486610492 3.6629282384156474e-06 0 0 0
510 2 22.193828032999996 18.779392951000002 1.7072217260911096 0 0 0
553 1 27.315480656 20.486610491999993 3.6629282362354693e-06 0 0 0
518 2 29.022698196999997 18.779392951000002 1.7072217260911047 0 0 0
528 2 5.121652622999997 22.193828033000003 1.7072217260911076 0 0 0
536 2 11.950522786999997 22.193828033 1.707221726091107 0 0 0
544 2 18.779392951000002 22.193828033000003 1.7072217260911071 0 0 0
552 2 25.608263115 22.193828033000003 1.7072217260911093 0 0 0
560 2 32.437133278999994 22.193828033000003 1.7072217260911058 0 0 0
526 2 1.7072175409999986 25.608263115000003 1.7072217260911098 0 0 0
523 1 3.4144350820000025 23.901045573999998 3.6629282364246376e-06 0 0 0
531 1 10.243305246000002 23.901045573999998 3.6629282376783463e-06 0 0 0
534 2 8.536087704999998 25.608263115 1.7072217260911082 0 0 0