ITEM: TIMESTEP
400
ITEM: NUMBER OF ATOMS
1250
ITEM: BOX BOUNDS pp pp pp
0.0000000000000000e+00 3.7500000000000000e+01
0.0000000000000000e+00 3.7500000000000000e+01
-1.5000000000000000e+01 6.0000000000000000e+01
ITEM: ATOMS id type xs ys zs
1 1 0 0 0
8 2 0.15 0.05 0.025
9 1 0.2 0 0
16 2 0.35 0.05 0.025
17 1 0.4 0 0
24 2 0.55 0.05 0.025
25 1 0.6 0 0
32 2 0.75 0.05 0.025
33 1 0.8 0 0
40 2 0.95 0.05 0.025
3 1 0.1 0.1 0
11 1 0.3 0.1 0
19 1 0.5 0.1 0
27 1 0.7 0.1 0
35 1 0.9 0.1 0
6 2 0.05 0.15 0.025
41 1 0 0.2 0
49 1 0.2 0.2 0
14 2 0.25 0.15 0.025
57 1 0.4 0.2 0
22 2 0.45 0.15 0.025
65 1 0.6 0.2 0
30 2 0.65 0.15 0.025
38 2 0.85 0.15 0.025
73 1 0.8 0.2 0
48 2 0.15 0.25 0.025
56 2 0.35 0.25 0.025
64 2 0.55 0.25 0.025
72 2 0.75 0.25 0.025
80 2 0.95 0.25 0.025
46 2 0.05 0.35 0.025
43 1 0.1 0.3 0
54 2 0.25 0.35 0.025
51 1 0.3 0.3 0
62 2 0.45 0.35 0.025
59 1 0.5 0.3 0
67 1 0.7 0.3 0
70 2 0.65 0.35 0.025
78 2 0.85 0.35 0.025
75 1 0.9 0.3 0
81 1 0 0.4 0
89 1 0.2 0.4 0
97 1 0.4 0.4 0
105 1 0.6 0.4 0
113 1 0.8 0.4 0
88 2 0.15 0.45 0.025
96 2 0.35 0.45 0.025
104 2 0.55 0.45 0.025
112 2 0.75 0.45 0.025
120 2 0.95 0.45 0.025
86 2 0.05 0.55 0.025
83 1 0.1 0.5 0
94 2 0.25 0.55 0.025
91 1 0.3 0.5 0
102 2 0.45 0.55 0.025
99 1 0.5 0.5 0
107 1 0.7 0.5 0
110 2 0.65 0.55 0.025
118 2 0.85 0.55 0.025
115 1 0.9 0.5 0
121 1 0 0.6 0
129 1 0.2 0.6 0
137 1 0.4 0.6 0
145 1 0.6 0.6 0
153 1 0.8 0.6 0
123 1 0.1 0.7 0
128 2 0.15 0.65 0.025
131 1 0.3 0.7 0
136 2 0.35 0.65 0.025
139 1 0.5 0.7 0
144 2 0.55 0.65 0.025
147 1 0.7 0.7 0
152 2 0.75 0.65 0.025
155 1 0.9 0.7 0
160 2 0.95 0.65 0.025
126 2 0.05 0.75 0.025
134 2 0.25 0.75 0.025
142 2 0.45 0.75 0.025
150 2 0.65 0.75 0.025
158 2 0.85 0.75 0.025
161 1 0 0.8 0
168 2 0.15 0.85 0.025
169 1 0.2 0.8 0
176 2 0.35 0.85 0.025
177 1 0.4 0.8 0
184 2 0.55 0.85 0.025
185 1 0.6 0.8 0
192 2 0.75 0.85 0.025
193 1 0.8 0.8 0
200 2 0.95 0.85 0.025
163 1 0.1 0.9 0
171 1 0.3 0.9 0
179 1 0.5 0.9 0
187 1 0.7 0.9 0
195 1 0.9 0.9 0
166 2 0.05 0.95 0.025
174 2 0.25 0.95 0.025
182 2 0.45 0.95 0.025
190 2 0.65 0.95 0.025
198 2 0.85 0.95 0.025
7 2 0.0500739 0.0503631 0.0696181
2 1 0.1 0 0.05
15 2 0.249779 0.0500073 0.0697804
10 1 0.3 0 0.05
23 2 0.45022 0.0501488 0.0698001
18 1 0.5 0 0.05
26 1 0.7 0 0.05
31 2 0.650108 0.0499754 0.0696381
39 2 0.85031 0.0501126 0.0696339
34 1 0.9 0 0.05
4 1 0 0.1 0.05
12 1 0.2 0.1 0.05
20 1 0.4 0.1 0.05
28 1 0.6 0.1 0.05
36 1 0.8 0.1 0.05
42 1 0.1 0.2 0.05
5 2 0.149811 0.150113 0.0694399
50 1 0.3 0.2 0.05
13 2 0.349892 0.150205 0.0698114
58 1 0.5 0.2 0.05
21 2 0.550199 0.150302 0.0694404
66 1 0.7 0.2 0.05
29 2 0.750358 0.149827 0.0694707
74 1 0.9 0.2 0.05
37 2 0.950201 0.149716 0.0697893
47 2 0.0496872 0.250246 0.069373
55 2 0.249855 0.250232 0.0697832
63 2 0.449885 0.249769 0.0696689
71 2 0.650361 0.24965 0.0695848
79 2 0.849794 0.250368 0.069541
44 1 0 0.3 0.05
52 1 0.2 0.3 0.05
45 2 0.149547 0.350257 0.0695076
53 2 0.349829 0.349974 0.0694687
60 1 0.4 0.3 0.05
61 2 0.550374 0.349957 0.0696174
68 1 0.6 0.3 0.05
69 2 0.750149 0.349647 0.0695856
76 1 0.8 0.3 0.05
77 2 0.949965 0.350196 0.0697215
82 1 0.1 0.4 0.05
90 1 0.3 0.4 0.05
98 1 0.5 0.4 0.05
106 1 0.7 0.4 0.05
114 1 0.9 0.4 0.05
87 2 0.0496952 0.449701 0.0695596
95 2 0.250234 0.450126 0.0697104
103 2 0.44993 0.450098 0.0694375
111 2 0.650119 0.449563 0.0696476
119 2 0.850039 0.449502 0.0694768
84 1 0 0.5 0.05
92 1 0.2 0.5 0.05
85 2 0.149627 0.549907 0.0695671
93 2 0.349924 0.550292 0.0697245
100 1 0.4 0.5 0.05
101 2 0.550184 0.550429 0.0697891
108 1 0.6 0.5 0.05
109 2 0.750317 0.549685 0.0697364
116 1 0.8 0.5 0.05
117 2 0.950012 0.550354 0.0695418
122 1 0.1 0.6 0.05
130 1 0.3 0.6 0.05
138 1 0.5 0.6 0.05
146 1 0.7 0.6 0.05
154 1 0.9 0.6 0.05
124 1 0 0.7 0.05
127 2 0.0503996 0.650301 0.06942
132 1 0.2 0.7 0.05
135 2 0.249727 0.649823 0.0697076
140 1 0.4 0.7 0.05
143 2 0.450088 0.650386 0.0694928
148 1 0.6 0.7 0.05
151 2 0.649751 0.650078 0.0694508
156 1 0.8 0.7 0.05
159 2 0.850053 0.650198 0.0697552
125 2 0.150528 0.750143 0.0698082
133 2 0.350084 0.749784 0.0694991
141 2 0.549745 0.750266 0.0698017
149 2 0.749883 0.750045 0.0695819
157 2 0.95004 0.750288 0.0696132
167 2 0.0499477 0.850353 0.069421
162 1 0.1 0.8 0.05
175 2 0.250384 0.850067 0.0697324
170 1 0.3 0.8 0.05
183 2 0.450246 0.850343 0.0695445
178 1 0.5 0.8 0.05
186 1 0.7 0.8 0.05
191 2 0.650236 0.849597 0.0697916
199 2 0.850262 0.849898 0.0697473
194 1 0.9 0.8 0.05
164 1 0 0.9 0.05
172 1 0.2 0.9 0.05
180 1 0.4 0.9 0.05
188 1 0.6 0.9 0.05
196 1 0.8 0.9 0.05
165 2 0.149533 0.949764 0.0697932
173 2 0.34995 0.949918 0.0697648
181 2 0.549534 0.949755 0.069558
189 2 0.750339 0.950098 0.0694483
197 2 0.949693 0.949813 0.0695416
201 1 5.42679e-05 0.000250555 0.0893493
209 1 0.199871 -0.000313272 0.0892753
217 1 0.399637 0.000446215 0.08936
225 1 0.599451 -0.000216648 0.0892489
233 1 0.80037 -8.23893e-05 0.0890743
203 1 0.100292 0.100179 0.0890697
211 1 0.299962 0.100207 0.0893195
219 1 0.500335 0.100491 0.0890557
227 1 0.7002 0.100252 0.0890798
235 1 0.900133 0.100087 0.0891605
241 1 0.000105536 0.200199 0.0892622
249 1 0.200262 0.199684 0.0892378
257 1 0.400124 0.200035 0.089467
265 1 0.599885 0.200298 0.0893451
273 1 0.79982 0.200215 0.0891037
243 1 0.0997788 0.299602 0.0893262
251 1 0.2998 0.29993 0.0891003
259 1 0.500003 0.299727 0.0891951
267 1 0.700349 0.299809 0.0893413
275 1 0.900145 0.300232 0.0893894
281 1 -1.1155e-05 0.399632 0.0892435
289 1 0.200004 0.399968 0.0893044
297 1 0.400125 0.400056 0.0890914
305 1 0.600176 0.399569 0.0895472
313 1 0.800084 0.399926 0.0894183
283 1 0.100023 0.500073 0.0890934
291 1 0.299685 0.500024 0.0893845
299 1 0.500299 0.500321 0.0894562
307 1 0.700173 0.500174 0.0892372
315 1 0.89978 0.499649 0.0893
329 1 0.199568 0.599772 0.0893322
337 1 0.400301 0.60037 0.0895389
345 1 0.600465 0.599705 0.089287
353 1 0.799618 0.599992 0.0891917
321 1 0.999889 0.60056 0.0893245
323 1 0.100091 0.700076 0.0891155
331 1 0.30016 0.699901 0.0890785
339 1 0.49965 0.700435 0.0895175
347 1 0.700277 0.699795 0.0894604
355 1 0.89994 0.70013 0.0893343
361 1 0.000235868 0.800185 0.0892672
369 1 0.200577 0.800406 0.0892818
377 1 0.39974 0.800306 0.089317
385 1 0.599943 0.800102 0.0895361
393 1 0.799708 0.800012 0.0894098
363 1 0.0997504 0.89959 0.0891991
371 1 0.300022 0.900008 0.0895654
379 1 0.499986 0.899687 0.0894122
387 1 0.700351 0.900089 0.0891875
395 1 0.899853 0.899659 0.0893471
202 1 0.100155 0.000115676 0.128786
208 2 0.149698 0.0502756 0.108798
216 2 0.349864 0.0503504 0.108858
210 1 0.299652 0.000262336 0.128621
224 2 0.549583 0.0503157 0.109188
218 1 0.499824 -5.39588e-05 0.128589
226 1 0.699807 -0.000238613 0.128487
232 2 0.750095 0.0501517 0.108933
234 1 0.900522 -0.000398244 0.128486
240 2 0.950016 0.0502863 0.108831
204 1 -0.000253815 0.100076 0.128619
212 1 0.199906 0.100199 0.128843
220 1 0.399977 0.0995513 0.128492
228 1 0.599745 0.100281 0.128712
236 1 0.799828 0.0997765 0.128594
206 2 0.050316 0.150109 0.108872
242 1 0.100494 0.1999 0.128701
214 2 0.250082 0.150221 0.109038
250 1 0.300236 0.199872 0.128925
222 2 0.449853 0.149733 0.108782
258 1 0.499592 0.199969 0.128644
230 2 0.650104 0.149925 0.108796
266 1 0.700127 0.199943 0.128411
238 2 0.849554 0.149808 0.109137
274 1 0.899528 0.199776 0.128759
248 2 0.149891 0.250199 0.10883
256 2 0.350078 0.249994 0.108988
264 2 0.549955 0.250044 0.109029
272 2 0.750221 0.249696 0.108976
280 2 0.949888 0.249566 0.108852
246 2 0.0503896 0.349676 0.108867
244 1 1.52375e-05 0.299712 0.12846
252 1 0.200005 0.300364 0.128576
254 2 0.249798 0.350111 0.108792
260 1 0.400344 0.299593 0.128868
262 2 0.449813 0.349992 0.109156
268 1 0.6001 0.300241 0.128715
270 2 0.650342 0.350168 0.109035
278 2 0.849899 0.350331 0.108864
276 1 0.800065 0.300265 0.128674
282 1 0.100118 0.399725 0.128793
290 1 0.299697 0.399526 0.128862
298 1 0.500119 0.39979 0.128832
306 1 0.700134 0.399759 0.128599
314 1 0.899732 0.399925 0.128715
288 2 0.15021 0.449748 0.109123
292 1 0.200212 0.499706 0.128597
296 2 0.349937 0.44997 0.109233
300 1 0.40029 0.500456 0.128627
304 2 0.550022 0.449859 0.108946
308 1 0.600053 0.499886 0.128591
312 2 0.750222 0.450027 0.108898
316 1 0.799938 0.500285 0.128537
320 2 0.949825 0.4501 0.109094
286 2 0.049985 0.549867 0.108801
284 1 3.70169e-05 0.499794 0.1286
294 2 0.249651 0.549999 0.108803
302 2 0.450314 0.550344 0.10911
310 2 0.649956 0.550029 0.10888
318 2 0.84978 0.550172 0.108707
322 1 0.100287 0.600072 0.128823
330 1 0.300064 0.600283 0.128618
338 1 0.500388 0.599743 0.12849
346 1 0.700039 0.600329 0.12859
354 1 0.899721 0.599388 0.128875
324 1 0.000380751 0.699646 0.128552
328 2 0.150103 0.650328 0.108948
332 1 0.200407 0.700064 0.128753
336 2 0.349848 0.650249 0.10918
340 1 0.399831 0.699619 0.128748
344 2 0.549947 0.649621 0.108829
348 1 0.599937 0.699647 0.12867
352 2 0.749929 0.649927 0.10897
356 1 0.800361 0.700163 0.128873
360 2 0.949472 0.65014 0.108972
326 2 0.0497513 0.749842 0.108791
334 2 0.250344 0.750229 0.109028
342 2 0.450089 0.750273 0.109304
350 2 0.650435 0.749969 0.109222
358 2 0.850294 0.750103 0.108807
362 1 0.100165 0.800096 0.128605
368 2 0.150102 0.849905 0.108806
376 2 0.349704 0.850202 0.109199
370 1 0.299973 0.799837 0.128804
378 1 0.500342 0.800235 0.128901
384 2 0.550472 0.850454 0.10894
386 1 0.700562 0.799984 0.128907
392 2 0.750127 0.850356 0.109227
394 1 0.899861 0.799572 0.128731
400 2 0.950251 0.849693 0.109198
364 1 0.000359984 0.899988 0.128606
372 1 0.19954 0.899891 0.128838
380 1 0.400403 0.900113 0.128701
388 1 0.600543 0.899986 0.128696
396 1 0.800302 0.899809 0.128977
366 2 0.050133 0.95036 0.108898
374 2 0.249564 0.949615 0.109
382 2 0.450041 0.950417 0.108734
390 2 0.649626 0.949868 0.108823
398 2 0.850248 0.9501 0.108936
207 2 0.0500666 0.0500075 0.148246
401 1 -0.000275049 -0.000154661 0.168146
409 1 0.199817 1.81286e-05 0.168225
215 2 0.249992 0.049749 0.148255
223 2 0.450297 0.0495704 0.148286
231 2 0.64985 0.0501301 0.148361
239 2 0.850041 0.049578 0.14804
403 1 0.10008 0.100141 0.168238
411 1 0.299461 0.0998487 0.168251
419 1 0.500143 0.0998158 0.168143
427 1 0.699534 0.100394 0.167926
435 1 0.89965 0.0995567 0.168064
441 1 -0.000288214 0.199559 0.167923
205 2 0.150286 0.15011 0.148457
449 1 0.199959 0.199924 0.168222
213 2 0.350267 0.149757 0.148579
457 1 0.399891 0.20044 0.168297
221 2 0.549525 0.150242 0.148501
465 1 0.599486 0.200441 0.168214
229 2 0.749975 0.149784 0.148188
473 1 0.800006 0.20007 0.167871
237 2 0.949538 0.149537 0.148431
247 2 0.0503263 0.250013 0.148426
255 2 0.249826 0.249712 0.148459
263 2 0.449807 0.24986 0.148298
271 2 0.650324 0.249638 0.14838
279 2 0.849643 0.250109 0.148179
443 1 0.0999504 0.300173 0.168068
245 2 0.149772 0.350235 0.14822
253 2 0.350426 0.349639 0.148577
451 1 0.300053 0.2995 0.168106
459 1 0.499895 0.30002 0.16786
261 2 0.550082 0.349844 0.148293
467 1 0.700082 0.299619 0.168105
269 2 0.750068 0.349978 0.148169
475 1 0.899897 0.299674 0.16808
277 2 0.950079 0.34991 0.148283
489 1 0.199425 0.399821 0.168238
497 1 0.399923 0.400443 0.168258
505 1 0.600016 0.39993 0.168128
513 1 0.799922 0.399922 0.167852
481 1 1.00043 0.399861 0.167903
287 2 0.0501342 0.450022 0.148356
295 2 0.249585 0.450247 0.14861
491 1 0.30009 0.500192 0.168019
303 2 0.45022 0.450115 0.14832
499 1 0.500368 0.499768 0.168213
311 2 0.649747 0.449866 0.148195
507 1 0.699556 0.500084 0.167877
319 2 0.849748 0.450066 0.148417
483 1 0.0996497 0.500281 0.16825
285 2 0.14977 0.549819 0.148582
293 2 0.350347 0.550388 0.148222
301 2 0.549982 0.549889 0.148438
309 2 0.749874 0.549827 0.148545
515 1 0.899667 0.499775 0.168154
317 2 0.950394 0.549534 0.148491
529 1 0.199937 0.599832 0.168249
537 1 0.399814 0.600037 0.167874
545 1 0.600131 0.599726 0.167841
553 1 0.799916 0.60011 0.168035
521 1 1.00049 0.599638 0.167956
327 2 0.0500754 0.650018 0.148178
523 1 0.100415 0.700342 0.167926
335 2 0.250154 0.649559 0.148589
531 1 0.299656 0.699583 0.168238
343 2 0.450367 0.649735 0.148138
539 1 0.500188 0.700402 0.168209
351 2 0.649693 0.650208 0.148451
547 1 0.699981 0.700294 0.167901
359 2 0.850246 0.649719 0.148381
555 1 0.900428 0.700084 0.167885
325 2 0.150231 0.750272 0.148169
333 2 0.35008 0.749501 0.148384
341 2 0.550168 0.749774 0.148468
349 2 0.750414 0.750261 0.148625
357 2 0.950393 0.749672 0.148095
367 2 0.0503882 0.849704 0.148215
561 1 0.000363911 0.800038 0.167802
569 1 0.199819 0.799787 0.168241
375 2 0.249549 0.849615 0.148199
577 1 0.400135 0.800056 0.168029
383 2 0.449857 0.849949 0.148332
585 1 0.600277 0.800247 0.16822
391 2 0.650545 0.850118 0.148526
399 2 0.850602 0.849715 0.148655
593 1 0.800554 0.800262 0.16822
563 1 0.100387 0.899662 0.168031
571 1 0.299628 0.899657 0.167907
579 1 0.500127 0.899632 0.167844
587 1 0.700122 0.900051 0.168293
595 1 0.900251 0.900397 0.168284
365 2 0.150055 0.949955 0.1483
373 2 0.349639 0.950141 0.148336
417 1 0.399751 0.999784 0.168238
381 2 0.549871 0.949744 0.148159
425 1 0.599778 1.00001 0.167862
389 2 0.749585 0.950174 0.148505
433 1 0.799594 1.00031 0.16789
397 2 0.949766 0.949555 0.1484
408 2 0.150031 0.0502819 0.187982
416 2 0.349741 0.0502015 0.187879
424 2 0.550361 0.0496429 0.18775
432 2 0.750002 0.0504543 0.187648
434 1 0.899558 -0.000451311 0.207316
440 2 0.949549 0.0495447 0.18793
412 1 0.200281 0.100223 0.207614
420 1 0.400249 0.100263 0.207444
428 1 0.600133 0.100429 0.207256
436 1 0.800016 0.099962 0.207527
404 1 0.999507 0.10016 0.207264
406 2 0.049922 0.149837 0.187735
442 1 0.099688 0.200323 0.207554
414 2 0.249851 0.150422 0.187848
450 1 0.300217 0.20013 0.207421
422 2 0.449719 0.149874 0.187626
458 1 0.499634 0.200095 0.207414
430 2 0.64967 0.150524 0.187557
466 1 0.700085 0.199559 0.207375
438 2 0.850309 0.150066 0.187913
474 1 0.900192 0.199906 0.207647
448 2 0.150093 0.249963 0.187555
456 2 0.349961 0.249967 0.187975
464 2 0.549813 0.250111 0.187827
472 2 0.750216 0.249914 0.187609
480 2 0.95038 0.250239 0.187668
446 2 0.050225 0.349659 0.187584
452 1 0.200115 0.300218 0.207604
454 2 0.249819 0.349878 0.187555
460 1 0.400439 0.299872 0.207308
462 2 0.450023 0.350385 0.187788
468 1 0.599608 0.300093 0.207518
470 2 0.650178 0.349499 0.187764
478 2 0.849885 0.350241 0.187558
476 1 0.800017 0.299798 0.207449
444 1 1.00002 0.300199 0.207333
482 1 0.100082 0.399887 0.207206
490 1 0.299987 0.400149 0.207302
498 1 0.499788 0.400282 0.207622
506 1 0.699542 0.399759 0.207398
514 1 0.899905 0.400181 0.207384
488 2 0.149749 0.450262 0.187839
496 2 0.349743 0.450018 0.187766
504 2 0.549646 0.449414 0.187916
512 2 0.749886 0.449825 0.187819
520 2 0.950235 0.450008 0.18751
486 2 0.0500903 0.550076 0.187806
492 1 0.199751 0.499831 0.20724
494 2 0.249651 0.550226 0.187748
500 1 0.399796 0.499977 0.207383
502 2 0.449682 0.550263 0.187736
508 1 0.599854 0.499393 0.207232
510 2 0.649647 0.549681 0.18792
518 2 0.84985 0.550222 0.187938
516 1 0.800518 0.499511 0.207297
484 1 1.00002 0.49983 0.207554
522 1 0.100164 0.600034 0.207602
530 1 0.299851 0.600014 0.20743
538 1 0.499977 0.599721 0.207505
546 1 0.700385 0.599986 0.207262
554 1 0.900213 0.60034 0.207459
528 2 0.149891 0.649703 0.187673
532 1 0.199444 0.699596 0.20743
536 2 0.350171 0.649871 0.187578
540 1 0.39995 0.699943 0.207447
544 2 0.550396 0.650189 0.18764
548 1 0.599982 0.699798 0.207538
552 2 0.75027 0.65034 0.1875
556 1 0.799593 0.700435 0.207453
560 2 0.95046 0.649604 0.187714
524 1 1.00009 0.700039 0.20754
526 2 0.0499005 0.750061 0.187723
534 2 0.249567 0.749678 0.187908
542 2 0.449638 0.75028 0.187948
550 2 0.650334 0.749604 0.18773
558 2 0.850173 0.749737 0.187567
562 1 0.100075 0.799864 0.207544
568 2 0.150077 0.850201 0.187814
576 2 0.349907 0.850005 0.187888
570 1 0.299724 0.799661 0.207386
584 2 0.550284 0.849918 0.187675
578 1 0.500301 0.799786 0.207172
586 1 0.70022 0.800002 0.207337
592 2 0.75029 0.849943 0.18756
594 1 0.900104 0.799847 0.207263
600 2 0.950094 0.85021 0.187551
564 1 0.000147549 0.899942 0.207412
572 1 0.199977 0.899715 0.207423
580 1 0.400492 0.900136 0.207284
588 1 0.600074 0.900099 0.207463
596 1 0.800373 0.899897 0.207137
566 2 0.0499775 0.949657 0.187738
402 1 0.0997353 0.999664 0.207326
574 2 0.250399 0.949749 0.187647
410 1 0.300135 1.00027 0.207525
582 2 0.45024 0.949608 0.187518
418 1 0.500322 0.999569 0.20746
590 2 0.649853 0.949659 0.187677
426 1 0.699612 1.00007 0.207208
598 2 0.849765 0.950243 0.187536
407 2 0.0498838 0.0503493 0.227152
415 2 0.24958 0.0498341 0.227283
423 2 0.450089 0.0500716 0.227202
431 2 0.649802 0.0499692 0.227247
439 2 0.850248 0.049818 0.227219
603 1 0.100304 0.10038 0.246796
611 1 0.299626 0.100054 0.246918
619 1 0.499658 0.0996595 0.246644
627 1 0.699668 0.0995882 0.246911
635 1 0.900434 0.100122 0.246957
405 2 0.149999 0.150022 0.226986
649 1 0.200052 0.200245 0.246629
413 2 0.350171 0.150127 0.227085
657 1 0.400425 0.200173 0.246675
421 2 0.549581 0.150071 0.226962
665 1 0.599613 0.200393 0.246612
429 2 0.750361 0.149766 0.227228
673 1 0.800501 0.20028 0.246935
437 2 0.950091 0.150063 0.227361
641 1 0.999909 0.200012 0.247007
447 2 0.0499349 0.249902 0.227196
455 2 0.250414 0.249897 0.226943
463 2 0.449878 0.249656 0.227171
471 2 0.649688 0.249721 0.226961
479 2 0.850137 0.250196 0.226977
643 1 0.100452 0.300034 0.246666
445 2 0.14992 0.350304 0.226905
453 2 0.349994 0.350156 0.22714
651 1 0.299918 0.299879 0.246761
461 2 0.549886 0.350333 0.226963
659 1 0.499884 0.299871 0.246598
667 1 0.700212 0.29982 0.246779
469 2 0.750049 0.350373 0.227019
675 1 0.900055 0.299536 0.246909
477 2 0.949888 0.349703 0.22718
689 1 0.199884 0.399695 0.246555
697 1 0.400208 0.400102 0.246604
705 1 0.600434 0.399817 0.246923
713 1 0.800168 0.400436 0.246708
681 1 1.00014 0.399958 0.247019
487 2 0.0499059 0.449716 0.227318
495 2 0.249534 0.449762 0.226836
503 2 0.450203 0.450272 0.22689
511 2 0.650286 0.450382 0.227225
519 2 0.850414 0.450016 0.227284
683 1 0.0999444 0.499671 0.246948
485 2 0.149803 0.550081 0.227272
493 2 0.350062 0.550108 0.227158
691 1 0.299783 0.499806 0.24667
501 2 0.550172 0.54957 0.227267
699 1 0.499902 0.499778 0.246936
707 1 0.70026 0.500074 0.246777
509 2 0.750398 0.549764 0.226963
715 1 0.900311 0.500032 0.246733
517 2 0.949907 0.550328 0.227246
729 1 0.199713 0.600213 0.246748
737 1 0.400123 0.600036 0.246524
745 1 0.600039 0.600365 0.246857
753 1 0.800257 0.60021 0.246811
721 1 1.00037 0.59997 0.246686
527 2 0.050322 0.649743 0.227271
723 1 0.0998249 0.699956 0.246943
535 2 0.249643 0.650187 0.227269
731 1 0.300397 0.70008 0.246645
543 2 0.450497 0.650216 0.227123
739 1 0.500012 0.700486 0.246874
551 2 0.650412 0.649785 0.227083
747 1 0.699639 0.700203 0.246578
559 2 0.849814 0.650082 0.226878
755 1 0.899932 0.699587 0.246808
525 2 0.149694 0.749806 0.227338
533 2 0.350204 0.750499 0.226895
541 2 0.549842 0.750095 0.227235
549 2 0.749789 0.749955 0.227143
557 2 0.949677 0.75041 0.227195
567 2 0.050242 0.850394 0.227216
769 1 0.199906 0.799685 0.24677
575 2 0.249945 0.84976 0.227
777 1 0.400359 0.800377 0.246736
583 2 0.450608 0.849763 0.226819
785 1 0.599907 0.800147 0.246813
591 2 0.64996 0.849845 0.227075
599 2 0.849796 0.850101 0.226939
793 1 0.800069 0.79998 0.246658
761 1 1.00019 0.800548 0.246996
763 1 0.100284 0.900403 0.246959
771 1 0.300112 0.900353 0.246653
779 1 0.500452 0.899779 0.246698
787 1 0.699941 0.89954 0.246914
795 1 0.899642 0.899735 0.246572
565 2 0.150341 0.950026 0.227219
609 1 0.199602 1.00003 0.247062
573 2 0.350251 0.950069 0.227104
617 1 0.400111 0.999569 0.246597
581 2 0.550125 0.949803 0.227309
625 1 0.599903 1.00021 0.246728
589 2 0.749701 0.949571 0.226931
633 1 0.799778 0.999511 0.246857
597 2 0.950307 0.950378 0.227164
601 1 1.00002 1.00032 0.246952
608 2 0.149656 0.0504135 0.266671
616 2 0.350086 0.0499861 0.266181
624 2 0.549781 0.0497928 0.266573
632 2 0.75005 0.0498003 0.266436
640 2 0.950176 0.0497594 0.266689
606 2 0.0498045 0.149705 0.266579
614 2 0.250203 0.15031 0.266359
622 2 0.450241 0.150158 0.266625
630 2 0.649488 0.149938 0.266252
638 2 0.850041 0.149801 0.266551
648 2 0.149682 0.249739 0.266705
656 2 0.350079 0.249676 0.266534
664 2 0.549606 0.250141 0.266647
672 2 0.749971 0.249695 0.266572
680 2 0.950388 0.250274 0.266513
646 2 0.050165 0.349965 0.266634
654 2 0.24979 0.349855 0.266214
662 2 0.44973 0.349826 0.26663
670 2 0.650169 0.349567 0.266399
678 2 0.850031 0.349968 0.266303
688 2 0.149829 0.449952 0.266635
696 2 0.350413 0.450035 0.266275
704 2 0.550243 0.449618 0.266482
712 2 0.749693 0.449795 0.266389
720 2 0.949894 0.449846 0.266306
686 2 0.0495837 0.549672 0.266658
694 2 0.250186 0.54999 0.266372
702 2 0.45023 0.550312 0.266244
710 2 0.650153 0.550073 0.266463
718 2 0.850095 0.549786 0.266357
728 2 0.149788 0.649933 0.266614
736 2 0.350277 0.650165 0.266307
744 2 0.549728 0.650264 0.266375
752 2 0.749872 0.650336 0.266399
760 2 0.950103 0.650045 0.266371
726 2 0.0498821 0.750296 0.266412
734 2 0.249746 0.749736 0.266642
742 2 0.449778 0.749751 0.266531
750 2 0.649544 0.74978 0.266498
758 2 0.849872 0.749892 0.266377
768 2 0.150111 0.850174 0.266333
776 2 0.350166 0.850221 0.266534
784 2 0.55036 0.850234 0.266718
792 2 0.750122 0.849732 0.266545
800 2 0.949552 0.8503 0.266501
766 2 0.0501624 0.949991 0.266657
774 2 0.249752 0.949914 0.266695
782 2 0.450454 0.949908 0.266493
790 2 0.649525 0.949705 0.266523
798 2 0.850185 0.949813 0.266516
607 2 0.0502279 0.0498383 0.305768
615 2 0.249973 0.0497652 0.305934
623 2 0.449679 0.0497529 0.305762
631 2 0.650242 0.0503062 0.306019
639 2 0.849815 0.050531 0.306033
612 1 0.200141 0.0997818 0.286275
620 1 0.399782 0.100138 0.286112
628 1 0.600052 0.0996165 0.286327
636 1 0.800149 0.0998364 0.286056
604 1 0.999843 0.0999588 0.286016
642 1 0.099646 0.199766 0.28619
605 2 0.149594 0.149723 0.305643
650 1 0.29963 0.200026 0.286312
613 2 0.349762 0.150071 0.305816
658 1 0.499948 0.200147 0.285982
621 2 0.549544 0.150059 0.305756
666 1 0.700013 0.200058 0.28622
629 2 0.749985 0.149717 0.305895
674 1 0.900413 0.200077 0.2859
637 2 0.949697 0.150304 0.305847
647 2 0.0498941 0.2498 0.305706
655 2 0.249853 0.250033 0.305899
663 2 0.450241 0.249707 0.305614
671 2 0.649901 0.250123 0.305957
679 2 0.850105 0.249946 0.30561
652 1 0.200256 0.300046 0.285922
645 2 0.150167 0.349819 0.305715
653 2 0.349611 0.350151 0.305862
660 1 0.399659 0.300098 0.286124
661 2 0.550229 0.350454 0.305702
668 1 0.599628 0.300261 0.286053
669 2 0.749721 0.349668 0.306038
676 1 0.799591 0.300296 0.286055
644 1 1.00034 0.300016 0.286066
677 2 0.950099 0.350195 0.305735
682 1 0.100012 0.40021 0.286427
690 1 0.300122 0.400263 0.286111
698 1 0.499831 0.399894 0.286289
706 1 0.699758 0.399929 0.286191
714 1 0.899847 0.399961 0.286064
687 2 0.0497888 0.450413 0.305667
695 2 0.250422 0.449967 0.305888
703 2 0.450237 0.450234 0.30607
711 2 0.649903 0.450422 0.305877
719 2 0.85024 0.450102 0.306047
692 1 0.200306 0.499989 0.286261
685 2 0.150264 0.549754 0.305687
693 2 0.350158 0.549613 0.30568
700 1 0.400331 0.500302 0.28599
701 2 0.549795 0.55014 0.306017
708 1 0.60018 0.500233 0.286343
709 2 0.749837 0.549733 0.305865
716 1 0.80021 0.499678 0.286213
684 1 0.999404 0.499996 0.286192
717 2 0.950071 0.550101 0.306009
722 1 0.0995046 0.599986 0.286289
730 1 0.300037 0.599727 0.286118
738 1 0.499743 0.600286 0.285946
746 1 0.700155 0.600441 0.286297
754 1 0.900055 0.599623 0.286249
727 2 0.0495433 0.65046 0.305738
732 1 0.200011 0.699977 0.286259
735 2 0.250079 0.650075 0.305677
740 1 0.400238 0.700035 0.286133
743 2 0.450224 0.650262 0.305858
748 1 0.600065 0.700056 0.286316
751 2 0.649635 0.64996 0.306139
756 1 0.799661 0.700254 0.286038
759 2 0.849847 0.649979 0.305645
724 1 0.999569 0.700237 0.286061
725 2 0.150138 0.749916 0.305945
733 2 0.350227 0.749798 0.306033
741 2 0.550144 0.750091 0.306052
749 2 0.749522 0.749851 0.305955
757 2 0.949534 0.75006 0.305919
767 2 0.0498599 0.849527 0.305728
762 1 0.100372 0.79977 0.28632
775 2 0.249767 0.850458 0.305707
770 1 0.300083 0.799997 0.286044
783 2 0.450318 0.849488 0.305776
778 1 0.500383 0.79947 0.285949
786 1 0.699676 0.799702 0.286051
791 2 0.6501 0.850222 0.305882
799 2 0.849445 0.850259 0.30574
794 1 0.899445 0.800048 0.286154
772 1 0.199528 0.90017 0.286187
780 1 0.400005 0.899737 0.286386
788 1 0.599739 0.900385 0.286409
796 1 0.80007 0.900356 0.285904
764 1 0.99986 0.899964 0.286287
602 1 0.0998616 0.999815 0.285992
765 2 0.149927 0.949606 0.305811
610 1 0.300022 1.00013 0.286
773 2 0.349546 0.949685 0.30573
618 1 0.500355 1.00019 0.286054
781 2 0.550254 0.950203 0.305773
626 1 0.699928 0.999855 0.286146
789 2 0.749915 0.949694 0.305727
634 1 0.899649 1.00038 0.286409
797 2 0.950135 0.950275 0.305973
808 2 0.149926 0.0498684 0.34522
809 1 0.199577 -0.000389169 0.325312
816 2 0.34982 0.0500265 0.345084
817 1 0.399621 -0.000128982 0.325582
824 2 0.549894 0.0497613 0.345098
825 1 0.600028 -9.716e-05 0.32559
832 2 0.749579 0.0496944 0.345082
840 2 0.95001 0.0500128 0.345027
803 1 0.100069 0.100176 0.325507
811 1 0.300302 0.0995991 0.325261
819 1 0.499596 0.0997851 0.325466
827 1 0.700217 0.100203 0.325445
835 1 0.899915 0.100062 0.325452
806 2 0.0499449 0.149989 0.345314
841 1 1.58416e-05 0.199954 0.325658
849 1 0.199451 0.199706 0.325701
814 2 0.249712 0.149449 0.344952
857 1 0.399925 0.200176 0.325418
822 2 0.449699 0.149714 0.34537
865 1 0.599862 0.200068 0.325402
830 2 0.649672 0.149884 0.345062
838 2 0.849598 0.150035 0.344989
873 1 0.800132 0.199912 0.325266
848 2 0.14998 0.250503 0.345284
856 2 0.34972 0.25005 0.345262
864 2 0.549952 0.249727 0.34505
872 2 0.750017 0.249756 0.344956
880 2 0.950346 0.250038 0.345207
846 2 0.0503284 0.350443 0.345039
843 1 0.099808 0.30034 0.325386
854 2 0.249978 0.350388 0.345142
851 1 0.300088 0.299884 0.325739
862 2 0.449591 0.349532 0.345384
859 1 0.50035 0.299662 0.325618
867 1 0.69961 0.299716 0.32556
870 2 0.649864 0.349613 0.345165
878 2 0.849947 0.350141 0.345318
875 1 0.899877 0.300316 0.325694
881 1 0.000340024 0.400173 0.325392
889 1 0.199698 0.400387 0.325315
897 1 0.399677 0.3998 0.325344
905 1 0.600249 0.400435 0.325402
913 1 0.800328 0.399707 0.325493
888 2 0.15016 0.450369 0.345336
896 2 0.349786 0.449924 0.345347
904 2 0.549783 0.450155 0.345248
912 2 0.75044 0.449794 0.345363
920 2 0.949853 0.450271 0.34517
886 2 0.0499244 0.550123 0.345111
883 1 0.09985 0.499653 0.32567
894 2 0.250256 0.549994 0.345012
891 1 0.299897 0.500238 0.32565
902 2 0.450362 0.549627 0.345313
899 1 0.500373 0.499933 0.325727
907 1 0.700098 0.499761 0.325714
910 2 0.650058 0.550301 0.345016
918 2 0.850187 0.5499 0.345274
915 1 0.899713 0.500045 0.325381
921 1 0.000230971 0.600095 0.325698
929 1 0.200368 0.599948 0.325424
937 1 0.400194 0.59948 0.325528
945 1 0.59967 0.599933 0.325801
953 1 0.80023 0.599664 0.325416
923 1 0.09957 0.700183 0.325277
928 2 0.14993 0.650259 0.344943
931 1 0.299971 0.700137 0.325711
936 2 0.350033 0.649545 0.345117
939 1 0.499879 0.700156 0.325392
944 2 0.54997 0.650339 0.34545
947 1 0.699949 0.69977 0.325771
952 2 0.749893 0.649915 0.345073
955 1 0.899648 0.699766 0.325658
960 2 0.949987 0.649657 0.345082
926 2 0.0500213 0.750026 0.345086
934 2 0.250263 0.750301 0.345269
942 2 0.450341 0.750355 0.345042
950 2 0.649728 0.75031 0.3451
958 2 0.849578 0.750167 0.345318
968 2 0.150039 0.85033 0.345183
969 1 0.199864 0.800426 0.325603
976 2 0.349949 0.850123 0.345429
977 1 0.399759 0.800108 0.325732
984 2 0.549858 0.850233 0.345311
985 1 0.600091 0.800038 0.325486
992 2 0.749925 0.850124 0.345259
993 1 0.799651 0.799814 0.325575
961 1 0.999859 0.799913 0.325637
1000 2 0.94984 0.850346 0.345281
963 1 0.0995705 0.899698 0.325683
971 1 0.300123 0.899824 0.325693
979 1 0.500251 0.899832 0.325484
987 1 0.699954 0.899778 0.325514
995 1 0.899849 0.899784 0.3253
966 2 0.0501888 0.950306 0.345241
974 2 0.25014 0.950233 0.345186
982 2 0.450139 0.950284 0.345406
990 2 0.650355 0.950436 0.344974
833 1 0.800181 1.00016 0.3254
998 2 0.850293 0.949899 0.345337
801 1 0.999749 1.00005 0.325354
807 2 0.0499224 0.0495221 0.384607
802 1 0.100168 0.000318588 0.365064
815 2 0.25025 0.0497561 0.384584
810 1 0.300168 -0.000337036 0.364854
823 2 0.449682 0.0499182 0.384678
818 1 0.500127 0.000269362 0.365144
826 1 0.69998 0.000169766 0.364863
831 2 0.649811 0.0502615 0.384796
839 2 0.849829 0.0502424 0.384467
834 1 0.899807 0.000224223 0.364946
804 1 0.000130593 0.0996155 0.36498
812 1 0.199715 0.100017 0.364891
820 1 0.399992 0.0997591 0.365028
828 1 0.600113 0.0998986 0.364906
836 1 0.799394 0.100019 0.364615
842 1 0.100289 0.200227 0.36491
805 2 0.150077 0.149761 0.3847
850 1 0.299549 0.199837 0.364693
813 2 0.349869 0.150186 0.384577
858 1 0.50022 0.200358 0.365052
821 2 0.549905 0.149782 0.3844
866 1 0.699666 0.20024 0.36472
829 2 0.749475 0.149875 0.384593
874 1 0.900294 0.199678 0.364774
837 2 0.949989 0.150178 0.384686
847 2 0.0497361 0.250017 0.384739
855 2 0.250341 0.249981 0.384795
863 2 0.450148 0.250311 0.384737
871 2 0.650297 0.249922 0.384653
879 2 0.849852 0.249989 0.38439
844 1 -9.5502e-05 0.299851 0.364861
852 1 0.20022 0.300029 0.36488
845 2 0.150097 0.349696 0.384609
853 2 0.350065 0.349898 0.384468
860 1 0.399661 0.299649 0.365038
861 2 0.550524 0.3505 0.384618
868 1 0.5998 0.300019 0.364996
869 2 0.749809 0.350025 0.38442
876 1 0.80023 0.299851 0.364743
877 2 0.949758 0.3499 0.384614
882 1 0.100046 0.400199 0.365155
890 1 0.300047 0.399963 0.365004
898 1 0.499945 0.399848 0.365048
906 1 0.699513 0.400103 0.364777
914 1 0.89978 0.39967 0.3649
887 2 0.0495892 0.449765 0.384811
892 1 0.200316 0.500282 0.364796
895 2 0.250035 0.449743 0.384541
903 2 0.449621 0.4504 0.384673
908 1 0.600234 0.49979 0.364808
911 2 0.65029 0.450382 0.384825
916 1 0.800453 0.499908 0.364912
919 2 0.850355 0.449664 0.384376
884 1 0.000136669 0.499676 0.365018
885 2 0.150326 0.549881 0.384353
893 2 0.35018 0.549858 0.384898
900 1 0.399594 0.500422 0.365079
901 2 0.54977 0.550299 0.384604
909 2 0.749864 0.549703 0.384516
917 2 0.950302 0.550237 0.384668
922 1 0.0997502 0.600437 0.364907
930 1 0.300121 0.599501 0.364994
938 1 0.499614 0.599719 0.364987
946 1 0.699994 0.600128 0.365055
954 1 0.900243 0.59977 0.364889
924 1 -0.000312364 0.699942 0.365078
927 2 0.0497617 0.650106 0.384768
932 1 0.200223 0.699905 0.364854