ITEM: TIMESTEP
400
ITEM: NUMBER OF ATOMS
1250
ITEM: BOX BOUNDS pp pp pp
0.0000000000000000e+00 3.7500000000000000e+01
0.0000000000000000e+00 3.7500000000000000e+01
-1.5000000000000000e+01 6.0000000000000000e+01
ITEM: ATOMS id type xs ys zs
1 1 0 0 0
8 2 0.15 0.05 0.025
9 1 0.2 0 0
16 2 0.35 0.05 0.025
17 1 0.4 0 0
24 2 0.55 0.05 0.025
25 1 0.6 0 0
32 2 0.75 0.05 0.025
33 1 0.8 0 0
40 2 0.95 0.05 0.025
3 1 0.1 0.1 0
11 1 0.3 0.1 0
19 1 0.5 0.1 0
27 1 0.7 0.1 0
35 1 0.9 0.1 0
6 2 0.05 0.15 0.025
41 1 0 0.2 0
49 1 0.2 0.2 0
14 2 0.25 0.15 0.025
57 1 0.4 0.2 0
22 2 0.45 0.15 0.025
65 1 0.6 0.2 0
30 2 0.65 0.15 0.025
38 2 0.85 0.15 0.025
73 1 0.8 0.2 0
48 2 0.15 0.25 0.025
56 2 0.35 0.25 0.025
64 2 0.55 0.25 0.025
72 2 0.75 0.25 0.025
80 2 0.95 0.25 0.025
46 2 0.05 0.35 0.025
43 1 0.1 0.3 0
54 2 0.25 0.35 0.025
51 1 0.3 0.3 0
62 2 0.45 0.35 0.025
59 1 0.5 0.3 0
67 1 0.7 0.3 0
70 2 0.65 0.35 0.025
78 2 0.85 0.35 0.025
75 1 0.9 0.3 0
81 1 0 0.4 0
89 1 0.2 0.4 0
97 1 0.4 0.4 0
105 1 0.6 0.4 0
113 1 0.8 0.4 0
88 2 0.15 0.45 0.025
96 2 0.35 0.45 0.025
104 2 0.55 0.45 0.025
112 2 0.75 0.45 0.025
120 2 0.95 0.45 0.025
86 2 0.05 0.55 0.025
83 1 0.1 0.5 0
94 2 0.25 0.55 0.025
91 1 0.3 0.5 0
102 2 0.45 0.55 0.025
99 1 0.5 0.5 0
107 1 0.7 0.5 0
110 2 0.65 0.55 0.025
118 2 0.85 0.55 0.025
115 1 0.9 0.5 0
121 1 0 0.6 0
129 1 0.2 0.6 0
137 1 0.4 0.6 0
145 1 0.6 0.6 0
153 1 0.8 0.6 0
123 1 0.1 0.7 0
128 2 0.15 0.65 0.025
131 1 0.3 0.7 0
136 2 0.35 0.65 0.025
139 1 0.5 0.7 0
144 2 0.55 0.65 0.025
147 1 0.7 0.7 0
152 2 0.75 0.65 0.025
155 1 0.9 0.7 0
160 2 0.95 0.65 0.025
126 2 0.05 0.75 0.025
134 2 0.25 0.75 0.025
142 2 0.45 0.75 0.025
150 2 0.65 0.75 0.025
158 2 0.85 0.75 0.025
161 1 0 0.8 0
168 2 0.15 0.85 0.025
169 1 0.2 0.8 0
176 2 0.35 0.85 0.025
177 1 0.4 0.8 0
184 2 0.55 0.85 0.025
185 1 0.6 0.8 0
192 2 0.75 0.85 0.025
193 1 0.8 0.8 0
200 2 0.95 0.85 0.025
163 1 0.1 0.9 0
171 1 0.3 0.9 0
179 1 0.5 0.9 0
187 1 0.7 0.9 0
195 1 0.9 0.9 0
166 2 0.05 0.95 0.025
174 2 0.25 0.95 0.025
182 2 0.45 0.95 0.025
190 2 0.65 0.95 0.025
198 2 0.85 0.95 0.025
7 2 0.0500729 0.0503581 0.0696179
2 1 0.1 0 0.05
15 2 0.249782 0.0500072 0.069778
10 1 0.3 0 0.05
23 2 0.450217 0.0501468 0.0697974
18 1 0.5 0 0.05
26 1 0.7 0 0.05
31 2 0.650107 0.0499758 0.0696376
39 2 0.850306 0.0501111 0.0696335
34 1 0.9 0 0.05
4 1 0 0.1 0.05
12 1 0.2 0.1 0.05
20 1 0.4 0.1 0.05
28 1 0.6 0.1 0.05
36 1 0.8 0.1 0.05
42 1 0.1 0.2 0.05
5 2 0.149813 0.150112 0.0694422
50 1 0.3 0.2 0.05
13 2 0.349894 0.150202 0.0698086
58 1 0.5 0.2 0.05
21 2 0.550196 0.150298 0.0694426
66 1 0.7 0.2 0.05
29 2 0.750353 0.14983 0.0694726
74 1 0.9 0.2 0.05
37 2 0.950198 0.14972 0.0697868
47 2 0.0496914 0.250243 0.0693762
55 2 0.249857 0.250229 0.0697808
63 2 0.449887 0.249772 0.069668
71 2 0.650357 0.249655 0.0695851
79 2 0.849796 0.250363 0.0695418
44 1 0 0.3 0.05
52 1 0.2 0.3 0.05
45 2 0.149553 0.350254 0.0695089
53 2 0.349831 0.349975 0.0694705
60 1 0.4 0.3 0.05
61 2 0.550369 0.349958 0.0696173
68 1 0.6 0.3 0.05
69 2 0.750147 0.349652 0.0695859
76 1 0.8 0.3 0.05
77 2 0.949966 0.350193 0.06972
82 1 0.1 0.4 0.05
90 1 0.3 0.4 0.05
98 1 0.5 0.4 0.05
106 1 0.7 0.4 0.05
114 1 0.9 0.4 0.05
87 2 0.0496993 0.449705 0.0695602
95 2 0.250231 0.450124 0.069709
103 2 0.449931 0.450097 0.0694397
111 2 0.650118 0.449569 0.0696469
119 2 0.850038 0.449509 0.0694785
84 1 0 0.5 0.05
92 1 0.2 0.5 0.05
85 2 0.149632 0.549908 0.0695677
93 2 0.349925 0.550288 0.0697229
100 1 0.4 0.5 0.05
101 2 0.550181 0.550423 0.0697866
108 1 0.6 0.5 0.05
109 2 0.750313 0.549689 0.0697346
116 1 0.8 0.5 0.05
117 2 0.950012 0.550349 0.0695426
122 1 0.1 0.6 0.05
130 1 0.3 0.6 0.05
138 1 0.5 0.6 0.05
146 1 0.7 0.6 0.05
154 1 0.9 0.6 0.05
124 1 0 0.7 0.05
127 2 0.0503942 0.650297 0.0694226
132 1 0.2 0.7 0.05
135 2 0.249731 0.649825 0.0697061
140 1 0.4 0.7 0.05
143 2 0.450087 0.650381 0.0694943
148 1 0.6 0.7 0.05
151 2 0.649754 0.650077 0.0694529
156 1 0.8 0.7 0.05
159 2 0.850052 0.650196 0.0697531
125 2 0.150521 0.750141 0.0698054
133 2 0.350083 0.749787 0.0695006
141 2 0.549748 0.750263 0.0697989
149 2 0.749884 0.750044 0.0695822
157 2 0.950039 0.750284 0.0696131
167 2 0.0499484 0.850348 0.0694236
162 1 0.1 0.8 0.05
175 2 0.250379 0.850066 0.0697306
170 1 0.3 0.8 0.05
183 2 0.450243 0.850338 0.0695453
178 1 0.5 0.8 0.05
186 1 0.7 0.8 0.05
191 2 0.650233 0.849602 0.069789
199 2 0.850259 0.849899 0.0697454
194 1 0.9 0.8 0.05
164 1 0 0.9 0.05
172 1 0.2 0.9 0.05
180 1 0.4 0.9 0.05
188 1 0.6 0.9 0.05
196 1 0.8 0.9 0.05
165 2 0.14954 0.949768 0.0697906
173 2 0.349951 0.949919 0.0697626
181 2 0.54954 0.949758 0.0695586
189 2 0.750334 0.950097 0.0694505
197 2 0.949697 0.949815 0.0695424
201 1 5.35848e-05 0.000247125 0.0893487
209 1 0.199872 -0.00030901 0.0892757
217 1 0.399642 0.000440114 0.0893593
225 1 0.599458 -0.0002138 0.0892496
233 1 0.800365 -8.13311e-05 0.0890774
203 1 0.100288 0.100177 0.0890729
211 1 0.299962 0.100204 0.0893193
219 1 0.500331 0.100484 0.089059
227 1 0.700197 0.100249 0.0890829
235 1 0.900131 0.100086 0.0891624
241 1 0.000104023 0.200196 0.0892627
249 1 0.200259 0.199688 0.0892386
257 1 0.400123 0.200035 0.0894647
265 1 0.599887 0.200294 0.0893446
273 1 0.799823 0.200212 0.0891064
243 1 0.0997818 0.299607 0.0893259
251 1 0.299803 0.299931 0.089103
259 1 0.500003 0.299731 0.0891965
267 1 0.700344 0.299811 0.0893408
275 1 0.900143 0.300228 0.0893882
281 1 -1.10066e-05 0.399637 0.0892443
289 1 0.200004 0.399968 0.0893044
297 1 0.400123 0.400055 0.0890942
305 1 0.600174 0.399575 0.0895439
313 1 0.800083 0.399927 0.0894168
283 1 0.100023 0.500072 0.0890962
291 1 0.299689 0.500024 0.0893833
299 1 0.500295 0.500316 0.0894541
307 1 0.70017 0.500172 0.0892381
315 1 0.899783 0.499654 0.0893001
329 1 0.199574 0.599776 0.0893318
337 1 0.400297 0.600365 0.0895356
345 1 0.600459 0.599709 0.0892872
353 1 0.799623 0.599992 0.0891932
321 1 0.999891 0.600553 0.0893243
323 1 0.10009 0.700075 0.089118
331 1 0.300158 0.699903 0.0890815
339 1 0.499655 0.700429 0.0895145
347 1 0.700274 0.699798 0.0894583
355 1 0.899941 0.700128 0.0893339
361 1 0.000232644 0.800182 0.0892677
369 1 0.200569 0.800401 0.0892821
377 1 0.399744 0.800302 0.0893168
385 1 0.599944 0.8001 0.0895329
393 1 0.799712 0.800012 0.0894083
363 1 0.0997538 0.899595 0.0892004
371 1 0.300021 0.900008 0.0895618
379 1 0.499986 0.899691 0.0894107
387 1 0.700346 0.900088 0.0891891
395 1 0.899854 0.899663 0.0893464
202 1 0.100153 0.000114101 0.128785
208 2 0.149702 0.0502719 0.1088
216 2 0.349866 0.0503456 0.10886
210 1 0.299657 0.000258835 0.128622
224 2 0.549589 0.0503114 0.109185
218 1 0.499826 -5.31342e-05 0.12859
226 1 0.69981 -0.000235432 0.128489
232 2 0.750094 0.0501497 0.108934
234 1 0.900515 -0.000392864 0.128488
240 2 0.950016 0.0502824 0.108833
204 1 -0.000250429 0.100074 0.128619
212 1 0.199907 0.100196 0.128841
220 1 0.399977 0.0995574 0.128494
228 1 0.599749 0.100277 0.128712
236 1 0.79983 0.0997796 0.128595
206 2 0.0503117 0.150108 0.108874
242 1 0.100487 0.199901 0.128701
214 2 0.250081 0.150218 0.109038
250 1 0.300233 0.199874 0.128922
222 2 0.449855 0.149736 0.108785
258 1 0.499598 0.19997 0.128644
230 2 0.650103 0.149926 0.108799
266 1 0.700125 0.199944 0.128414
238 2 0.84956 0.149811 0.109135
274 1 0.899534 0.199779 0.128758
248 2 0.149893 0.250196 0.108832
256 2 0.350077 0.249994 0.108988
264 2 0.549955 0.250043 0.109028
272 2 0.750218 0.2497 0.108977
280 2 0.94989 0.249572 0.108854
246 2 0.0503844 0.349681 0.108869
244 1 1.49945e-05 0.299716 0.128463
252 1 0.200005 0.300359 0.128577
254 2 0.2498 0.35011 0.108795
260 1 0.400339 0.299598 0.128865
262 2 0.449816 0.349992 0.109154
268 1 0.600098 0.300237 0.128714
270 2 0.650337 0.350166 0.109034
278 2 0.8499 0.350327 0.108865
276 1 0.800064 0.300262 0.128674
282 1 0.100116 0.399729 0.128791
290 1 0.299702 0.399533 0.12886
298 1 0.500117 0.399793 0.128829
306 1 0.700132 0.399762 0.1286
314 1 0.899736 0.399926 0.128714
288 2 0.150208 0.449752 0.109121
292 1 0.200209 0.49971 0.128598
296 2 0.349938 0.44997 0.10923
300 1 0.400286 0.50045 0.128628
304 2 0.550022 0.449861 0.108946
308 1 0.600053 0.499888 0.128592
312 2 0.750219 0.450026 0.1089
316 1 0.799939 0.500281 0.128538
320 2 0.949827 0.450099 0.109093
286 2 0.0499852 0.549869 0.108803
284 1 3.64322e-05 0.499796 0.128601
294 2 0.249655 0.549999 0.108806
302 2 0.450309 0.55034 0.109108
310 2 0.649956 0.550029 0.108881
318 2 0.849783 0.550169 0.108711
322 1 0.100283 0.600071 0.128821
330 1 0.300063 0.600279 0.128619
338 1 0.500383 0.599746 0.128492
346 1 0.700038 0.600324 0.128591
354 1 0.899724 0.599397 0.128872
324 1 0.000375652 0.699651 0.128554
328 2 0.150101 0.650323 0.108948
332 1 0.200401 0.700063 0.128752
336 2 0.34985 0.650246 0.109178
340 1 0.399833 0.699624 0.128747
344 2 0.549947 0.649627 0.108832
348 1 0.599937 0.699652 0.12867
352 2 0.74993 0.649928 0.10897
356 1 0.800356 0.70016 0.128871
360 2 0.949479 0.650139 0.108972
326 2 0.0497546 0.749844 0.108793
334 2 0.250339 0.750226 0.109027
342 2 0.450088 0.750269 0.1093
350 2 0.650429 0.749969 0.109219
358 2 0.85029 0.750101 0.108809
362 1 0.100163 0.800094 0.128606
368 2 0.150101 0.849906 0.108809
376 2 0.349708 0.850199 0.109196
370 1 0.299974 0.79984 0.128802
378 1 0.500338 0.800232 0.128897
384 2 0.550466 0.850447 0.108941
386 1 0.700554 0.799984 0.128903
392 2 0.750125 0.850351 0.109224
394 1 0.899863 0.799578 0.12873
400 2 0.950247 0.849697 0.109195
364 1 0.000355019 0.899988 0.128607
372 1 0.199546 0.899893 0.128836
380 1 0.400398 0.900111 0.128701
388 1 0.600535 0.899986 0.128696
396 1 0.800297 0.899812 0.128973
366 2 0.0501311 0.950355 0.1089
374 2 0.24957 0.949621 0.108999
382 2 0.450041 0.950411 0.108737
390 2 0.649631 0.94987 0.108826
398 2 0.850245 0.950099 0.108936
207 2 0.0500658 0.0500074 0.148248
401 1 -0.000271295 -0.000152506 0.168145
409 1 0.199819 1.78992e-05 0.168223
215 2 0.249992 0.0497524 0.148256
223 2 0.450293 0.0495763 0.148287
231 2 0.649852 0.0501283 0.148361
239 2 0.85004 0.0495838 0.148045
403 1 0.100079 0.100139 0.168235
411 1 0.299469 0.0998507 0.168248
419 1 0.500141 0.0998184 0.168141
427 1 0.699541 0.100389 0.167928
435 1 0.899655 0.0995629 0.168064
441 1 -0.000284341 0.199565 0.167925
205 2 0.150282 0.150108 0.148455
449 1 0.19996 0.199925 0.16822
213 2 0.350263 0.149761 0.148576
457 1 0.399892 0.200434 0.168294
221 2 0.549532 0.150239 0.148499
465 1 0.599493 0.200435 0.168212
229 2 0.749975 0.149787 0.14819
473 1 0.800006 0.200069 0.167873
237 2 0.949544 0.149544 0.14843
247 2 0.0503219 0.250013 0.148425
255 2 0.249828 0.249716 0.148457
263 2 0.449809 0.249862 0.148299
271 2 0.65032 0.249643 0.14838
279 2 0.849648 0.250108 0.148181
443 1 0.0999509 0.300171 0.168068
245 2 0.149775 0.350232 0.148222
253 2 0.35042 0.349644 0.148574
451 1 0.300052 0.299507 0.168105
459 1 0.499897 0.30002 0.167862
261 2 0.550081 0.349846 0.148294
467 1 0.70008 0.299624 0.168104
269 2 0.750067 0.349978 0.148172
475 1 0.899899 0.299678 0.16808
277 2 0.950077 0.349911 0.148284
489 1 0.199433 0.399824 0.168235
497 1 0.399924 0.400437 0.168255
505 1 0.600016 0.399931 0.168127
513 1 0.799923 0.399923 0.167855
481 1 1.00043 0.399862 0.167905
287 2 0.0501323 0.450022 0.148356
295 2 0.249591 0.450244 0.148606
491 1 0.300089 0.50019 0.168019
303 2 0.450217 0.450114 0.14832
499 1 0.500363 0.499771 0.168211
311 2 0.64975 0.449868 0.148197
507 1 0.699562 0.500083 0.16788
319 2 0.849751 0.450065 0.148417
483 1 0.0996545 0.500277 0.168247
285 2 0.149773 0.549822 0.148579
293 2 0.350342 0.550383 0.148224
301 2 0.549982 0.54989 0.148437
309 2 0.749875 0.54983 0.148543
515 1 0.899671 0.499778 0.168152
317 2 0.950388 0.549541 0.14849
529 1 0.199938 0.599834 0.168246
537 1 0.399817 0.600036 0.167876
545 1 0.600129 0.59973 0.167844
553 1 0.799917 0.600108 0.168035
521 1 1.00048 0.599643 0.167957
327 2 0.0500742 0.650018 0.148181
523 1 0.100409 0.700338 0.167927
335 2 0.250152 0.649565 0.148586
531 1 0.29966 0.699589 0.168236
343 2 0.450362 0.649739 0.148141
539 1 0.500186 0.700397 0.168207
351 2 0.649697 0.650205 0.14845
547 1 0.699981 0.70029 0.167903
359 2 0.850243 0.649723 0.14838
555 1 0.900422 0.700083 0.167887
325 2 0.150228 0.750269 0.148172
333 2 0.350079 0.749508 0.148383
341 2 0.550165 0.749777 0.148467
349 2 0.750408 0.750257 0.148621
357 2 0.950387 0.749676 0.148099
367 2 0.0503828 0.849708 0.148217
561 1 0.000359023 0.800038 0.167805
569 1 0.199822 0.79979 0.168238
375 2 0.249555 0.84962 0.148202
577 1 0.400133 0.800055 0.168029
383 2 0.449859 0.849949 0.148332
585 1 0.600273 0.800243 0.168218
391 2 0.650538 0.850117 0.148524
399 2 0.850594 0.849718 0.148651
593 1 0.800546 0.800259 0.168217
563 1 0.100382 0.899667 0.168032
571 1 0.299633 0.899662 0.167909
579 1 0.500125 0.899637 0.167847
587 1 0.70012 0.90005 0.16829
595 1 0.900247 0.900391 0.168281
365 2 0.150054 0.949955 0.148301
373 2 0.349644 0.950139 0.148337
417 1 0.399755 0.999787 0.168235
381 2 0.549872 0.949748 0.148161
425 1 0.599781 1.00001 0.167865
389 2 0.749591 0.950172 0.148503
433 1 0.799599 1.0003 0.167892
397 2 0.949769 0.949561 0.1484
408 2 0.15003 0.0502781 0.187979
416 2 0.349745 0.0501986 0.187877
424 2 0.550356 0.0496478 0.18775
432 2 0.750002 0.0504481 0.187649
434 1 0.899564 -0.000445119 0.207317
440 2 0.949555 0.049551 0.187927
412 1 0.200277 0.10022 0.207611
420 1 0.400246 0.10026 0.207443
428 1 0.600132 0.100423 0.207258
436 1 0.800015 0.0999626 0.207526
404 1 0.999514 0.100158 0.207266
406 2 0.0499231 0.14984 0.187735
442 1 0.0996922 0.200319 0.207552
414 2 0.249853 0.150416 0.187847
450 1 0.300214 0.200128 0.207421
422 2 0.449723 0.149875 0.187628
458 1 0.499639 0.200093 0.207414
430 2 0.649674 0.150517 0.187559
466 1 0.700084 0.199565 0.207376
438 2 0.850305 0.150065 0.187911
474 1 0.900189 0.199907 0.207644
448 2 0.150092 0.249963 0.187558
456 2 0.349962 0.249967 0.187971
464 2 0.549816 0.250109 0.187825
472 2 0.750213 0.249915 0.18761
480 2 0.950375 0.250236 0.187669
446 2 0.050222 0.349663 0.187586
452 1 0.200113 0.300215 0.207602
454 2 0.249821 0.34988 0.187557
460 1 0.400433 0.299874 0.20731
462 2 0.450022 0.35038 0.187787
468 1 0.599613 0.300091 0.207516
470 2 0.650176 0.349506 0.187763
478 2 0.849887 0.350238 0.187561
476 1 0.800017 0.2998 0.207449
444 1 1.00002 0.300196 0.207334
482 1 0.100081 0.399888 0.207209
490 1 0.299987 0.400147 0.207304
498 1 0.499791 0.400278 0.207619
506 1 0.699548 0.399762 0.207399
514 1 0.899906 0.400179 0.207384
488 2 0.149753 0.450258 0.187838
496 2 0.349747 0.450018 0.187765
504 2 0.549651 0.449422 0.187913
512 2 0.749887 0.449827 0.187818
520 2 0.950232 0.450008 0.187513
486 2 0.0500891 0.550075 0.187805
492 1 0.199755 0.499833 0.207242
494 2 0.249656 0.550223 0.187748
500 1 0.399799 0.499978 0.207384
502 2 0.449686 0.550259 0.187736
508 1 0.599856 0.499402 0.207235
510 2 0.649651 0.549685 0.187917
518 2 0.849852 0.550219 0.187935
516 1 0.800511 0.499517 0.207298
484 1 1.00002 0.499832 0.207552
522 1 0.100162 0.600034 0.207599
530 1 0.299853 0.600014 0.20743
538 1 0.499977 0.599724 0.207503
546 1 0.70038 0.599986 0.207264
554 1 0.90021 0.600336 0.207458
528 2 0.149892 0.649707 0.187674
532 1 0.199452 0.699602 0.20743
536 2 0.350169 0.649873 0.18758
540 1 0.39995 0.699943 0.207447
544 2 0.550391 0.650187 0.187641
548 1 0.599983 0.699801 0.207536
552 2 0.750266 0.650335 0.187503
556 1 0.799598 0.70043 0.207453
560 2 0.950453 0.649609 0.187714
524 1 1.00009 0.700038 0.207538
526 2 0.0499018 0.75006 0.187723
534 2 0.249573 0.749682 0.187906
542 2 0.449643 0.750276 0.187945
550 2 0.65033 0.74961 0.18773
558 2 0.85017 0.74974 0.187569
562 1 0.100074 0.799866 0.207542
568 2 0.150076 0.850199 0.187813
576 2 0.349908 0.850005 0.187885
570 1 0.299728 0.799666 0.207387
584 2 0.55028 0.849919 0.187676
578 1 0.500297 0.799789 0.207175
586 1 0.700217 0.800002 0.207338
592 2 0.750286 0.849943 0.187562
594 1 0.900103 0.799849 0.207266
600 2 0.950093 0.850208 0.187554
564 1 0.000145584 0.899943 0.207411
572 1 0.199978 0.899719 0.207423
580 1 0.400486 0.900134 0.207286
588 1 0.600073 0.900098 0.207462
596 1 0.800368 0.899898 0.20714
566 2 0.0499778 0.949662 0.187738
402 1 0.0997388 0.999669 0.207327
574 2 0.250394 0.949752 0.187648
410 1 0.300133 1.00027 0.207523
582 2 0.450237 0.949614 0.187521
418 1 0.500317 0.999575 0.207459
590 2 0.649855 0.949664 0.187678
426 1 0.699617 1.00007 0.207211
598 2 0.849769 0.950239 0.187538
407 2 0.0498854 0.0503445 0.227152
415 2 0.249586 0.0498364 0.22728
423 2 0.450088 0.0500708 0.2272
431 2 0.649805 0.0499695 0.227245
439 2 0.850244 0.0498205 0.227217
603 1 0.1003 0.100375 0.246796
611 1 0.299631 0.100054 0.246916
619 1 0.499663 0.099664 0.246646
627 1 0.699672 0.0995938 0.246909
635 1 0.900428 0.100121 0.246955
405 2 0.149999 0.150021 0.226988
649 1 0.200051 0.200241 0.246631
413 2 0.350169 0.150125 0.227085
657 1 0.40042 0.200171 0.246677
421 2 0.549587 0.15007 0.226964
665 1 0.599619 0.200388 0.246614
429 2 0.750356 0.149769 0.227227
673 1 0.800494 0.200277 0.246933
437 2 0.95009 0.150062 0.227357
641 1 0.99991 0.200012 0.247004
447 2 0.0499359 0.249903 0.227194
455 2 0.250409 0.249899 0.226945
463 2 0.44988 0.249661 0.22717
471 2 0.649692 0.249724 0.226963
479 2 0.850135 0.250193 0.226979
643 1 0.100446 0.300034 0.246667
445 2 0.149921 0.3503 0.226907
453 2 0.349994 0.350154 0.227139
651 1 0.299919 0.299881 0.246761
461 2 0.549887 0.350328 0.226965
659 1 0.499885 0.299873 0.246601
667 1 0.700209 0.299822 0.246779
469 2 0.750049 0.350368 0.22702
675 1 0.900054 0.299542 0.246907
477 2 0.94989 0.349707 0.227179
689 1 0.199885 0.399699 0.246558
697 1 0.400205 0.4001 0.246607
705 1 0.600428 0.399819 0.246921
713 1 0.800166 0.40043 0.246709
681 1 1.00014 0.399958 0.247015
487 2 0.0499071 0.44972 0.227315
495 2 0.24954 0.449765 0.226839
503 2 0.450201 0.450269 0.226893
511 2 0.650282 0.450376 0.227223
519 2 0.850409 0.450016 0.227282
683 1 0.0999453 0.499676 0.246946
485 2 0.149806 0.55008 0.227269
493 2 0.350061 0.550106 0.227157
691 1 0.299786 0.499809 0.246671
501 2 0.55017 0.549576 0.227264
699 1 0.499903 0.499781 0.246934
707 1 0.700257 0.500073 0.246777
509 2 0.750393 0.549768 0.226965
715 1 0.900307 0.500032 0.246734
517 2 0.949908 0.550323 0.227244
729 1 0.199717 0.60021 0.246749
737 1 0.400121 0.600035 0.246528
745 1 0.600038 0.60036 0.246856
753 1 0.800254 0.600207 0.24681
721 1 1.00037 0.59997 0.246688
527 2 0.0503176 0.649746 0.227269
723 1 0.0998273 0.699956 0.246941
535 2 0.249648 0.650185 0.227267
731 1 0.300392 0.700079 0.246647
543 2 0.45049 0.650213 0.227123
739 1 0.500012 0.700479 0.246872
551 2 0.650407 0.649788 0.227084
747 1 0.699644 0.700201 0.24658
559 2 0.849817 0.65008 0.226881
755 1 0.899933 0.699593 0.246807
525 2 0.149698 0.749809 0.227334
533 2 0.350202 0.750493 0.226898
541 2 0.549844 0.750094 0.227233
549 2 0.749792 0.749956 0.227143
557 2 0.949682 0.750404 0.227193
567 2 0.0502386 0.850389 0.227214
769 1 0.199907 0.79969 0.24677
575 2 0.249946 0.849763 0.227001
777 1 0.400355 0.800372 0.246736
583 2 0.4506 0.849766 0.226823
785 1 0.599908 0.800145 0.246812
591 2 0.64996 0.849847 0.227075
599 2 0.849799 0.8501 0.226942
793 1 0.800068 0.79998 0.24666
761 1 1.00019 0.80054 0.246993
763 1 0.10028 0.900398 0.246957
771 1 0.30011 0.900349 0.246655
779 1 0.500446 0.899783 0.2467
787 1 0.699942 0.899546 0.246912
795 1 0.899647 0.899738 0.246575
565 2 0.150337 0.950026 0.227217
609 1 0.199607 1.00003 0.247058
573 2 0.350248 0.950068 0.227104
617 1 0.40011 0.999575 0.246599
581 2 0.550123 0.949806 0.227306
625 1 0.599905 1.00021 0.246728
589 2 0.749705 0.949577 0.226933
633 1 0.799781 0.999518 0.246856
597 2 0.950303 0.950373 0.227163
601 1 1.00002 1.00031 0.246949
608 2 0.149661 0.0504079 0.266668
616 2 0.350085 0.0499863 0.266185
624 2 0.549784 0.0497955 0.266571
632 2 0.750049 0.049803 0.266436
640 2 0.950173 0.0497626 0.266686
606 2 0.0498071 0.149709 0.266578
614 2 0.2502 0.150306 0.266361
622 2 0.450237 0.150156 0.266623
630 2 0.649495 0.149939 0.266255
638 2 0.85004 0.149803 0.26655
648 2 0.149686 0.249742 0.266702
656 2 0.350078 0.24968 0.266533
664 2 0.549612 0.250139 0.266644
672 2 0.749972 0.249699 0.266571
680 2 0.950382 0.25027 0.266513
646 2 0.0501626 0.349966 0.266632
654 2 0.249793 0.349857 0.266218
662 2 0.449734 0.349828 0.266628
670 2 0.650166 0.349573 0.266399
678 2 0.85003 0.349968 0.266305
688 2 0.149831 0.449952 0.266633
696 2 0.350408 0.450034 0.266278
704 2 0.55024 0.449623 0.266482
712 2 0.749697 0.449798 0.26639
720 2 0.949896 0.449848 0.266308
686 2 0.0495894 0.549676 0.266656
694 2 0.250183 0.54999 0.266373
702 2 0.450227 0.550308 0.266247
710 2 0.650151 0.550072 0.266463
718 2 0.850093 0.549789 0.266359
728 2 0.149791 0.649934 0.266612
736 2 0.350273 0.650163 0.266309
744 2 0.549731 0.650261 0.266377
752 2 0.749874 0.650331 0.2664
760 2 0.950101 0.650045 0.266372
726 2 0.0498837 0.750292 0.266413
734 2 0.249749 0.74974 0.266639
742 2 0.449781 0.749755 0.26653
750 2 0.64955 0.749783 0.266497
758 2 0.849874 0.749894 0.266378
768 2 0.150109 0.850172 0.266335
776 2 0.350164 0.850218 0.266533
784 2 0.550355 0.850231 0.266715
792 2 0.750121 0.849736 0.266544
800 2 0.949558 0.850296 0.266501
766 2 0.0501603 0.949991 0.266654
774 2 0.249755 0.949916 0.266692
782 2 0.450448 0.94991 0.266493
790 2 0.649532 0.949709 0.266522
798 2 0.850183 0.949816 0.266516
607 2 0.0502248 0.0498404 0.305769
615 2 0.249973 0.0497685 0.305933
623 2 0.449684 0.0497563 0.305763
631 2 0.650239 0.0503022 0.306016
639 2 0.849817 0.0505237 0.306031
612 1 0.200139 0.0997847 0.286273
620 1 0.399785 0.100137 0.286112
628 1 0.600051 0.0996217 0.286324
636 1 0.800147 0.0998387 0.286058
604 1 0.999845 0.0999594 0.286018
642 1 0.0996509 0.199769 0.286189
605 2 0.149599 0.149727 0.305646
650 1 0.299635 0.200025 0.28631
613 2 0.349766 0.15007 0.305817
658 1 0.499949 0.200145 0.285984
621 2 0.549551 0.150058 0.305757
666 1 0.700012 0.200058 0.286219
629 2 0.749985 0.149721 0.305894
674 1 0.900408 0.200076 0.285904
637 2 0.949701 0.1503 0.305847
647 2 0.0498956 0.249803 0.305708
655 2 0.249856 0.250032 0.305898
663 2 0.450238 0.249711 0.305617
671 2 0.649902 0.250121 0.305956
679 2 0.850104 0.249946 0.305613
652 1 0.200252 0.300045 0.285925
645 2 0.150165 0.349822 0.305716
653 2 0.349616 0.350149 0.305862
660 1 0.399664 0.300097 0.286125
661 2 0.550226 0.350448 0.305704
668 1 0.599633 0.300258 0.286054
669 2 0.749725 0.349672 0.306035
676 1 0.799596 0.300292 0.286056
644 1 1.00033 0.300015 0.286067
677 2 0.950098 0.350193 0.305736
682 1 0.100012 0.400208 0.286423
690 1 0.30012 0.40026 0.286111
698 1 0.499833 0.399896 0.286287
706 1 0.699761 0.39993 0.28619
714 1 0.899849 0.399962 0.286066
687 2 0.0497918 0.450408 0.305669
695 2 0.250416 0.449968 0.305887
703 2 0.450233 0.450231 0.306067
711 2 0.649904 0.450416 0.305877
719 2 0.850237 0.450101 0.306044
692 1 0.200302 0.499989 0.28626
685 2 0.15026 0.549758 0.305689
693 2 0.350156 0.549619 0.305682
700 1 0.400327 0.500298 0.285992
701 2 0.549798 0.550138 0.306014
708 1 0.600177 0.50023 0.28634
709 2 0.749839 0.549737 0.305864
716 1 0.800207 0.499683 0.286213
684 1 0.999412 0.499996 0.286191
717 2 0.95007 0.5501 0.306007
722 1 0.0995114 0.599987 0.286287
730 1 0.300037 0.599731 0.286118
738 1 0.499746 0.600282 0.285948
746 1 0.700153 0.600435 0.286295
754 1 0.900054 0.599628 0.286247
727 2 0.0495496 0.650453 0.30574
732 1 0.200011 0.699977 0.286258
735 2 0.250078 0.650074 0.30568
740 1 0.400235 0.700035 0.286133
743 2 0.450221 0.650258 0.305858
748 1 0.600065 0.700056 0.286314
751 2 0.64964 0.649961 0.306135
756 1 0.799666 0.70025 0.286039
759 2 0.84985 0.649979 0.305647
724 1 0.999575 0.700234 0.286062
725 2 0.150136 0.749917 0.305943
733 2 0.350224 0.749801 0.30603
741 2 0.550142 0.75009 0.306049
749 2 0.749529 0.749853 0.305954
757 2 0.949541 0.750059 0.305917
767 2 0.0498619 0.849534 0.305729
762 1 0.100367 0.799773 0.286318
775 2 0.24977 0.850452 0.305709
770 1 0.300082 0.799997 0.286045
783 2 0.450314 0.849495 0.305777
778 1 0.500378 0.799477 0.285951
786 1 0.69968 0.799707 0.286052
791 2 0.650098 0.850219 0.305882
799 2 0.849452 0.850256 0.305742
794 1 0.899453 0.800048 0.286153
772 1 0.199534 0.900168 0.286186
780 1 0.400005 0.89974 0.286383
788 1 0.599743 0.90038 0.286405
796 1 0.800069 0.900351 0.285907
764 1 0.999862 0.899964 0.286285
602 1 0.0998634 0.999817 0.285995
765 2 0.149928 0.949612 0.305812
610 1 0.300022 1.00013 0.286002
773 2 0.349552 0.949689 0.305732
618 1 0.50035 1.00018 0.286055
781 2 0.550251 0.9502 0.305774
626 1 0.699929 0.999857 0.286146
789 2 0.749916 0.949698 0.305729
634 1 0.899654 1.00038 0.286405
797 2 0.950133 0.950271 0.305971
808 2 0.149927 0.0498702 0.34522
809 1 0.199582 -0.000383887 0.325315
816 2 0.349823 0.0500261 0.345085
817 1 0.399626 -0.000127127 0.325581
824 2 0.549895 0.0497645 0.3451
825 1 0.600027 -9.59348e-05 0.32559
832 2 0.749585 0.0496986 0.345084
840 2 0.95001 0.0500126 0.34503
803 1 0.100068 0.100174 0.325507
811 1 0.300297 0.0996046 0.325264
819 1 0.499601 0.0997881 0.325466
827 1 0.700214 0.1002 0.325446
835 1 0.899916 0.100061 0.325453
806 2 0.0499456 0.149989 0.345312
841 1 1.56036e-05 0.199955 0.325656
849 1 0.199459 0.19971 0.325699
814 2 0.249716 0.149457 0.344956
857 1 0.399926 0.200174 0.32542
822 2 0.449703 0.149717 0.345368
865 1 0.599864 0.200067 0.325404
830 2 0.649677 0.149886 0.345064
838 2 0.849604 0.150035 0.344992
873 1 0.800131 0.199913 0.325269
848 2 0.149981 0.250496 0.345283
856 2 0.349723 0.250049 0.345261
864 2 0.549953 0.249731 0.345052
872 2 0.750017 0.249759 0.344959
880 2 0.950341 0.250038 0.345207
846 2 0.050324 0.350437 0.345041
843 1 0.0998106 0.300336 0.325388
854 2 0.249979 0.350383 0.345143
851 1 0.300087 0.299886 0.325736
862 2 0.449596 0.349538 0.345382
859 1 0.500346 0.299666 0.325617
867 1 0.699615 0.29972 0.32556
870 2 0.649866 0.349618 0.345165
878 2 0.849948 0.350139 0.345317
875 1 0.899879 0.300312 0.325692
881 1 0.000335456 0.40017 0.325393
889 1 0.199702 0.400382 0.325318
897 1 0.399681 0.399803 0.325346
905 1 0.600246 0.40043 0.325404
913 1 0.800324 0.399711 0.325494
888 2 0.150158 0.450364 0.345334
896 2 0.349789 0.449925 0.345345
904 2 0.549786 0.450153 0.345248
912 2 0.750434 0.449797 0.345361
920 2 0.949855 0.450267 0.345171
886 2 0.0499254 0.550122 0.345112
883 1 0.0998521 0.499658 0.325668
894 2 0.250252 0.549995 0.345015
891 1 0.299898 0.500234 0.325648
902 2 0.450357 0.549632 0.345311
899 1 0.500368 0.499934 0.325724
907 1 0.700097 0.499764 0.325711
910 2 0.650057 0.550297 0.345019
918 2 0.850185 0.549901 0.345273
915 1 0.899716 0.500044 0.325383
921 1 0.000227829 0.600094 0.325695
929 1 0.200363 0.599949 0.325426
937 1 0.400191 0.599487 0.325528
945 1 0.599675 0.599934 0.325797
953 1 0.800227 0.599668 0.325418
923 1 0.0995759 0.700181 0.32528
928 2 0.149931 0.650256 0.344947
931 1 0.299971 0.700135 0.325709
936 2 0.350032 0.649552 0.345118
939 1 0.49988 0.700154 0.325394
944 2 0.549971 0.650335 0.345447
947 1 0.69995 0.699773 0.325767
952 2 0.749894 0.649916 0.345075
955 1 0.899653 0.699769 0.325656
960 2 0.949987 0.649662 0.345084
926 2 0.0500212 0.750026 0.345088
934 2 0.250259 0.750296 0.345268
942 2 0.450337 0.75035 0.345044
950 2 0.649731 0.750306 0.345101
958 2 0.849584 0.750165 0.345317
968 2 0.150038 0.850325 0.345183
969 1 0.199866 0.80042 0.325602
976 2 0.34995 0.850121 0.345426
977 1 0.399762 0.800107 0.325729
984 2 0.54986 0.85023 0.34531
985 1 0.60009 0.800038 0.325486
992 2 0.749926 0.850123 0.345258
993 1 0.799656 0.799817 0.325574
961 1 0.999861 0.799914 0.325635
1000 2 0.949843 0.850341 0.34528
963 1 0.0995764 0.899702 0.325681
971 1 0.300121 0.899827 0.32569
979 1 0.500247 0.899834 0.325484
987 1 0.699955 0.899781 0.325515
995 1 0.899851 0.899787 0.325303
966 2 0.0501863 0.950301 0.345241
974 2 0.250138 0.95023 0.345186
982 2 0.450137 0.95028 0.345403
990 2 0.65035 0.95043 0.344977
833 1 0.800179 1.00016 0.325402
998 2 0.850289 0.9499 0.345335
801 1 0.999752 1.00005 0.325357
807 2 0.0499235 0.0495286 0.384607
802 1 0.100165 0.000314316 0.365062
815 2 0.250247 0.0497593 0.384584
810 1 0.300166 -0.000332522 0.364854
823 2 0.449686 0.0499193 0.384677
818 1 0.500125 0.000265685 0.365141
826 1 0.69998 0.000167397 0.364863
831 2 0.649814 0.050258 0.384793
839 2 0.849831 0.0502391 0.384469
834 1 0.899809 0.000221145 0.364945
804 1 0.000128872 0.0996208 0.364979
812 1 0.199719 0.100017 0.364891
820 1 0.399992 0.0997625 0.365026
828 1 0.600111 0.0999001 0.364905
836 1 0.799402 0.100019 0.364619
842 1 0.100285 0.200224 0.36491
805 2 0.150076 0.149764 0.384699
850 1 0.299555 0.199839 0.364696
813 2 0.349871 0.150184 0.384577
858 1 0.500217 0.200353 0.36505
821 2 0.549907 0.149785 0.384402
866 1 0.699671 0.200237 0.364722
829 2 0.749483 0.149876 0.384593
874 1 0.90029 0.199682 0.364776
837 2 0.949989 0.150176 0.384685
847 2 0.0497396 0.250017 0.384737
855 2 0.250337 0.249982 0.384792
863 2 0.450146 0.250307 0.384734
871 2 0.650293 0.249922 0.384652
879 2 0.849854 0.24999 0.384393
844 1 -9.43269e-05 0.299853 0.364861
852 1 0.200217 0.300029 0.36488
845 2 0.150096 0.3497 0.384609
853 2 0.350064 0.349899 0.384469
860 1 0.399666 0.299654 0.365036
861 2 0.550517 0.350493 0.384618
868 1 0.599802 0.300019 0.364994
869 2 0.749812 0.350025 0.384422
876 1 0.800227 0.299853 0.364746
877 2 0.949761 0.349902 0.384613
882 1 0.100045 0.400196 0.365151
890 1 0.300046 0.399963 0.365002
898 1 0.499946 0.39985 0.365046
906 1 0.69952 0.400101 0.364779
914 1 0.899782 0.399674 0.364899
887 2 0.0495947 0.449769 0.384808
892 1 0.200311 0.500278 0.364797
895 2 0.250034 0.449746 0.384541
903 2 0.449626 0.450395 0.384671
908 1 0.60023 0.499793 0.364809
911 2 0.650286 0.450376 0.384822
916 1 0.800447 0.499909 0.364912
919 2 0.85035 0.449669 0.384379
884 1 0.000134807 0.49968 0.365016
885 2 0.150321 0.549882 0.384356
893 2 0.350178 0.54986 0.384893
900 1 0.399599 0.500417 0.365077
901 2 0.549773 0.550294 0.384604
909 2 0.749866 0.549707 0.384517
917 2 0.950298 0.550234 0.384667
922 1 0.0997536 0.600431 0.364907
930 1 0.300119 0.599508 0.364993
938 1 0.499619 0.599723 0.364986
946 1 0.699994 0.600127 0.365053
954 1 0.900239 0.599773 0.364888
924 1 -0.000308059 0.699942 0.365075
927 2 0.049765 0.650104 0.384765