ITEM: TIMESTEP
300
ITEM: NUMBER OF ATOMS
1250
ITEM: BOX BOUNDS pp pp pp
0.0000000000000000e+00 3.5500000000000000e+01
0.0000000000000000e+00 3.5500000000000000e+01
-1.4199999999999999e+01 5.6799999999999997e+01
ITEM: ATOMS id type xs ys zs
1 1 0 0 0
8 2 0.15 0.05 0.025
9 1 0.2 0 0
16 2 0.35 0.05 0.025
17 1 0.4 0 0
24 2 0.55 0.05 0.025
25 1 0.6 0 0
32 2 0.75 0.05 0.025
33 1 0.8 0 0
40 2 0.95 0.05 0.025
6 2 0.05 0.15 0.025
3 1 0.1 0.1 0
11 1 0.3 0.1 0
14 2 0.25 0.15 0.025
22 2 0.45 0.15 0.025
19 1 0.5 0.1 0
30 2 0.65 0.15 0.025
27 1 0.7 0.1 0
35 1 0.9 0.1 0
38 2 0.85 0.15 0.025
41 1 0 0.2 0
49 1 0.2 0.2 0
57 1 0.4 0.2 0
65 1 0.6 0.2 0
73 1 0.8 0.2 0
43 1 0.1 0.3 0
48 2 0.15 0.25 0.025
51 1 0.3 0.3 0
56 2 0.35 0.25 0.025
59 1 0.5 0.3 0
64 2 0.55 0.25 0.025
67 1 0.7 0.3 0
72 2 0.75 0.25 0.025
75 1 0.9 0.3 0
80 2 0.95 0.25 0.025
46 2 0.05 0.35 0.025
54 2 0.25 0.35 0.025
62 2 0.45 0.35 0.025
70 2 0.65 0.35 0.025
78 2 0.85 0.35 0.025
81 1 0 0.4 0
88 2 0.15 0.45 0.025
89 1 0.2 0.4 0
96 2 0.35 0.45 0.025
97 1 0.4 0.4 0
104 2 0.55 0.45 0.025
105 1 0.6 0.4 0
112 2 0.75 0.45 0.025
113 1 0.8 0.4 0
120 2 0.95 0.45 0.025
83 1 0.1 0.5 0
91 1 0.3 0.5 0
99 1 0.5 0.5 0
107 1 0.7 0.5 0
115 1 0.9 0.5 0
86 2 0.05 0.55 0.025
121 1 0 0.6 0
129 1 0.2 0.6 0
94 2 0.25 0.55 0.025
102 2 0.45 0.55 0.025
137 1 0.4 0.6 0
145 1 0.6 0.6 0
110 2 0.65 0.55 0.025
153 1 0.8 0.6 0
118 2 0.85 0.55 0.025
128 2 0.15 0.65 0.025
136 2 0.35 0.65 0.025
144 2 0.55 0.65 0.025
152 2 0.75 0.65 0.025
160 2 0.95 0.65 0.025
126 2 0.05 0.75 0.025
123 1 0.1 0.7 0
131 1 0.3 0.7 0
134 2 0.25 0.75 0.025
142 2 0.45 0.75 0.025
139 1 0.5 0.7 0
150 2 0.65 0.75 0.025
147 1 0.7 0.7 0
155 1 0.9 0.7 0
158 2 0.85 0.75 0.025
161 1 0 0.8 0
169 1 0.2 0.8 0
177 1 0.4 0.8 0
185 1 0.6 0.8 0
193 1 0.8 0.8 0
163 1 0.1 0.9 0
168 2 0.15 0.85 0.025
171 1 0.3 0.9 0
176 2 0.35 0.85 0.025
179 1 0.5 0.9 0
184 2 0.55 0.85 0.025
187 1 0.7 0.9 0
192 2 0.75 0.85 0.025
195 1 0.9 0.9 0
200 2 0.95 0.85 0.025
166 2 0.05 0.95 0.025
174 2 0.25 0.95 0.025
182 2 0.45 0.95 0.025
190 2 0.65 0.95 0.025
198 2 0.85 0.95 0.025
7 2 0.050148 0.0505642 0.0727521
2 1 0.1 0 0.05
10 1 0.3 0 0.05
15 2 0.249661 0.0499869 0.0730371
23 2 0.450352 0.0502853 0.0730418
18 1 0.5 0 0.05
31 2 0.650067 0.0498861 0.0728374
26 1 0.7 0 0.05
34 1 0.9 0 0.05
39 2 0.850554 0.0502356 0.0727311
4 1 0 0.1 0.05
5 2 0.14985 0.150244 0.0724437
12 1 0.2 0.1 0.05
13 2 0.349919 0.150388 0.073072
20 1 0.4 0.1 0.05
28 1 0.6 0.1 0.05
21 2 0.550481 0.150654 0.0724525
29 2 0.750577 0.149839 0.0724723
36 1 0.8 0.1 0.05
37 2 0.950391 0.149701 0.0729917
42 1 0.1 0.2 0.05
50 1 0.3 0.2 0.05
58 1 0.5 0.2 0.05
66 1 0.7 0.2 0.05
74 1 0.9 0.2 0.05
44 1 0 0.3 0.05
47 2 0.0495168 0.250321 0.0723748
52 1 0.2 0.3 0.05
55 2 0.249711 0.250238 0.0729441
60 1 0.4 0.3 0.05
63 2 0.449767 0.24958 0.0728265
68 1 0.6 0.3 0.05
71 2 0.650571 0.249546 0.0727482
76 1 0.8 0.3 0.05
79 2 0.849824 0.250668 0.0726716
45 2 0.149255 0.350272 0.0726663
53 2 0.349738 0.349944 0.072527
61 2 0.550561 0.349911 0.0728029
69 2 0.750278 0.349521 0.0727481
77 2 0.949921 0.350235 0.0728741
87 2 0.0494976 0.449504 0.0726803
82 1 0.1 0.4 0.05
90 1 0.3 0.4 0.05
95 2 0.250295 0.450149 0.0729006
103 2 0.450104 0.450345 0.0725382
98 1 0.5 0.4 0.05
111 2 0.650134 0.449302 0.0728883
106 1 0.7 0.4 0.05
114 1 0.9 0.4 0.05
119 2 0.84996 0.449165 0.0725551
84 1 0 0.5 0.05
92 1 0.2 0.5 0.05
100 1 0.4 0.5 0.05
108 1 0.6 0.5 0.05
116 1 0.8 0.5 0.05
122 1 0.1 0.6 0.05
85 2 0.149445 0.549869 0.0726215
130 1 0.3 0.6 0.05
93 2 0.349963 0.550503 0.0730415
138 1 0.5 0.6 0.05
101 2 0.550354 0.550664 0.0730095
146 1 0.7 0.6 0.05
109 2 0.750434 0.549537 0.0728591
154 1 0.9 0.6 0.05
117 2 0.949994 0.550499 0.0727323
127 2 0.0505936 0.650479 0.0724503
135 2 0.249471 0.649598 0.0729111
143 2 0.450196 0.650682 0.0726351
151 2 0.649741 0.650156 0.0725643
159 2 0.850033 0.650279 0.072984
124 1 0 0.7 0.05
125 2 0.15096 0.750398 0.0730641
132 1 0.2 0.7 0.05
133 2 0.350187 0.749754 0.0725668
140 1 0.4 0.7 0.05
148 1 0.6 0.7 0.05
141 2 0.549627 0.750437 0.0731098
149 2 0.749794 0.750018 0.0727414
156 1 0.8 0.7 0.05
157 2 0.950102 0.750457 0.0727936
162 1 0.1 0.8 0.05
170 1 0.3 0.8 0.05
178 1 0.5 0.8 0.05
186 1 0.7 0.8 0.05
194 1 0.9 0.8 0.05
164 1 0 0.9 0.05
167 2 0.0498717 0.850448 0.07241
172 1 0.2 0.9 0.05
175 2 0.250774 0.850296 0.0729126
180 1 0.4 0.9 0.05
183 2 0.450317 0.850465 0.0726655
188 1 0.6 0.9 0.05
191 2 0.650341 0.849393 0.0730613
196 1 0.8 0.9 0.05
199 2 0.850232 0.849721 0.0729673
165 2 0.149209 0.949525 0.0730113
173 2 0.349886 0.949874 0.0730381
181 2 0.549136 0.949449 0.0726697
189 2 0.750574 0.950194 0.072466
197 2 0.949535 0.949699 0.0727336
201 1 -8.13192e-06 0.000415514 0.0955138
209 1 0.199599 -0.000527804 0.0955758
217 1 0.399399 0.000801777 0.0956084
225 1 0.598884 -0.000164879 0.0954904
203 1 0.100392 0.100447 0.0951545
211 1 0.299768 0.10042 0.0956111
219 1 0.500673 0.100873 0.0951839
227 1 0.70043 0.100353 0.0951922
235 1 0.900027 0.100257 0.0954681
249 1 0.200225 0.19956 0.095465
257 1 0.400119 0.200059 0.0958253
265 1 0.599868 0.200457 0.0956159
273 1 0.799866 0.200215 0.0952463
241 1 1.00031 0.200254 0.0954409
243 1 0.0996445 0.299379 0.0954057
251 1 0.299806 0.299991 0.0953406
259 1 0.499955 0.299711 0.0954366
267 1 0.700555 0.299592 0.0956646
275 1 0.900145 0.300352 0.0956983
289 1 0.199902 0.400021 0.0954623
297 1 0.400059 0.400103 0.0952918
305 1 0.600332 0.399345 0.0959429
313 1 0.800023 0.399862 0.0956089
281 1 0.999971 0.39949 0.0956367
283 1 0.100007 0.499734 0.0952852
291 1 0.299703 0.500077 0.0957614
299 1 0.500368 0.500481 0.0957537
307 1 0.700215 0.500102 0.095478
315 1 0.899672 0.499515 0.0954425
329 1 0.19909 0.599648 0.0955669
337 1 0.400486 0.600786 0.0959493
345 1 0.600788 0.599737 0.0955177
353 1 0.799413 0.600152 0.0953765
321 1 0.999905 0.601083 0.0955451
323 1 0.100243 0.700232 0.0952823
331 1 0.300192 0.699848 0.095269
339 1 0.499419 0.70069 0.0959478
347 1 0.700289 0.699677 0.0957274
355 1 0.900009 0.700357 0.0955374
361 1 0.00039759 0.800442 0.0954402
369 1 0.201098 0.800621 0.0955961
377 1 0.39964 0.800552 0.0956223
385 1 0.600092 0.799993 0.0960204
393 1 0.799503 0.800129 0.0957561
363 1 0.0994773 0.899362 0.0954905
371 1 0.300017 0.900058 0.0960132
379 1 0.499983 0.899624 0.0957499
387 1 0.700645 0.900213 0.0954026
395 1 0.900003 0.899372 0.0957565
233 1 0.800623 0.999977 0.0952493
208 2 0.149637 0.0504645 0.118104
210 1 0.299452 0.000317995 0.140927
216 2 0.349529 0.0505522 0.118184
218 1 0.499774 -0.000231287 0.141004
224 2 0.549281 0.0505801 0.118627
232 2 0.750114 0.050081 0.118146
226 1 0.699549 -0.000278696 0.140842
234 1 0.901004 -0.00061188 0.140831
240 2 0.95001 0.050478 0.118102
206 2 0.0505714 0.150178 0.11819
204 1 -0.000290875 0.100225 0.141048
212 1 0.19987 0.100244 0.141357
214 2 0.250213 0.150321 0.118569
222 2 0.449806 0.149465 0.118059
220 1 0.40009 0.0992711 0.140977
228 1 0.599555 0.10066 0.141288
230 2 0.650079 0.149877 0.118022
236 1 0.799709 0.0994998 0.141097
238 2 0.849193 0.149692 0.118472
242 1 0.100865 0.199899 0.141224
250 1 0.300497 0.199765 0.141618
258 1 0.499226 0.199867 0.141059
266 1 0.70022 0.199727 0.14075
274 1 0.899221 0.199568 0.141309
244 1 8.77996e-05 0.299407 0.140818
248 2 0.150055 0.250195 0.118112
252 1 0.199992 0.300508 0.141034
256 2 0.350046 0.250059 0.118426
260 1 0.400413 0.299372 0.141446
264 2 0.549874 0.250132 0.118521
268 1 0.600398 0.300237 0.14124
272 2 0.750501 0.249633 0.118369
276 1 0.800083 0.300452 0.141018
280 2 0.949652 0.249179 0.118206
246 2 0.0506223 0.349457 0.118207
254 2 0.24976 0.350117 0.118019
262 2 0.449757 0.349907 0.118601
270 2 0.650696 0.350018 0.118457
278 2 0.849893 0.350469 0.118223
288 2 0.150201 0.44959 0.118542
282 1 0.100031 0.399666 0.141278
290 1 0.299458 0.399209 0.141632
296 2 0.349875 0.449882 0.118785
298 1 0.500211 0.399689 0.141396
304 2 0.550036 0.449649 0.118357
312 2 0.750293 0.450069 0.118241
306 1 0.700323 0.399855 0.141053
314 1 0.899531 0.399954 0.14129
320 2 0.949718 0.449939 0.118517
292 1 0.200181 0.499728 0.141145
300 1 0.400582 0.500723 0.141119
308 1 0.599975 0.499895 0.141011
316 1 0.799914 0.500527 0.14098
284 1 1.0002 0.499643 0.141044
286 2 0.0500156 0.549945 0.118097
322 1 0.100482 0.600007 0.141293
294 2 0.249445 0.550099 0.118158
330 1 0.299931 0.600266 0.141052
302 2 0.450582 0.55057 0.118529
338 1 0.500819 0.599558 0.14096
310 2 0.650124 0.549979 0.118266
346 1 0.699923 0.600431 0.141162
318 2 0.849578 0.550265 0.117878
354 1 0.899717 0.59882 0.141462
328 2 0.150176 0.650612 0.118354
336 2 0.349722 0.65046 0.118599
344 2 0.550012 0.649392 0.118015
352 2 0.750166 0.649995 0.118439
360 2 0.948973 0.650116 0.11848
326 2 0.0497789 0.749771 0.118048
324 1 0.000525825 0.699319 0.140852
332 1 0.200884 0.700043 0.141329
334 2 0.250684 0.75029 0.11837
342 2 0.449919 0.750649 0.118993
340 1 0.399932 0.699419 0.141316
348 1 0.599781 0.69942 0.141107
350 2 0.650767 0.749941 0.118825
356 1 0.800635 0.700251 0.141436
358 2 0.850316 0.750146 0.118109
362 1 0.100261 0.799955 0.140871
370 1 0.3001 0.799661 0.141469
378 1 0.500826 0.800529 0.141546
386 1 0.701044 0.800035 0.141633
394 1 0.899922 0.799265 0.141289
368 2 0.150175 0.849871 0.118068
372 1 0.199171 0.899677 0.141364
376 2 0.349584 0.850326 0.118827
380 1 0.400587 0.900446 0.141187
384 2 0.550782 0.850741 0.118444
388 1 0.601013 0.899911 0.141287
392 2 0.750251 0.850637 0.118806
396 1 0.800695 0.899883 0.141815
400 2 0.950356 0.849438 0.118735
364 1 1.00071 0.900021 0.141112
366 2 0.0503484 0.950587 0.118228
202 1 0.100329 1.00023 0.14128
374 2 0.249178 0.949362 0.118497
382 2 0.44999 0.950682 0.117921
390 2 0.64945 0.949752 0.117993
398 2 0.850321 0.949993 0.118307
207 2 0.0500021 0.0500883 0.16391
215 2 0.249767 0.0496253 0.16392
223 2 0.450336 0.0492493 0.163956
231 2 0.649713 0.0501842 0.163891
239 2 0.850102 0.0491616 0.16338
205 2 0.150442 0.15017 0.164269
213 2 0.350523 0.14942 0.164453
221 2 0.549169 0.150507 0.164243
229 2 0.749909 0.149693 0.163668
237 2 0.949031 0.149127 0.164092
247 2 0.0504688 0.249885 0.164071
255 2 0.249599 0.249557 0.16413
263 2 0.449746 0.249626 0.163993
271 2 0.650436 0.249354 0.163988
279 2 0.849414 0.250234 0.163708
245 2 0.149671 0.350236 0.163842
253 2 0.350749 0.349338 0.164419
261 2 0.550217 0.349782 0.163958
269 2 0.749988 0.34983 0.163751
277 2 0.950125 0.349711 0.163853
287 2 0.050345 0.45009 0.163965
295 2 0.249313 0.450178 0.164477
303 2 0.450366 0.450269 0.163976
311 2 0.649605 0.449633 0.163691
319 2 0.849491 0.450176 0.164002
285 2 0.149792 0.549566 0.16435
293 2 0.35043 0.550606 0.163717
301 2 0.550011 0.549646 0.16406
309 2 0.749735 0.549861 0.16421
317 2 0.95058 0.549047 0.164249
327 2 0.0503263 0.650055 0.163787
335 2 0.250136 0.649189 0.164385
343 2 0.450818 0.649577 0.163689
351 2 0.649627 0.650305 0.16411
359 2 0.850458 0.649553 0.164088
325 2 0.150492 0.750512 0.163657
333 2 0.350026 0.749084 0.164153
341 2 0.550506 0.749756 0.164215
349 2 0.750955 0.750521 0.164499
357 2 0.950864 0.749436 0.163507
367 2 0.0507831 0.849634 0.16373
375 2 0.249087 0.849222 0.163787
383 2 0.449812 0.849874 0.163953
391 2 0.651024 0.850193 0.164305
399 2 0.851244 0.849635 0.164543
365 2 0.150044 0.95001 0.163999
373 2 0.349345 0.950183 0.163922
381 2 0.549797 0.949551 0.16359
389 2 0.749264 0.950202 0.164192
397 2 0.949835 0.94923 0.164026
401 1 -0.000446045 -0.00030527 0.186916
408 2 0.15006 0.0504855 0.210119
409 1 0.199738 1.36654e-05 0.187109
416 2 0.34967 0.0504489 0.2099
417 1 0.399551 -0.000269898 0.187099
425 1 0.599704 -0.000254465 0.186458
424 2 0.550619 0.0494326 0.209687
432 2 0.7498 0.0509036 0.209441
433 1 0.799322 0.000628929 0.186518
440 2 0.949105 0.0491881 0.209915
406 2 0.0497946 0.149871 0.209661
403 1 0.100186 0.100167 0.187045
411 1 0.299026 0.0998129 0.187124
414 2 0.249797 0.150712 0.209888
422 2 0.449639 0.149873 0.209416
419 1 0.500181 0.0995001 0.186995
430 2 0.6494 0.150979 0.209274
427 1 0.699215 0.100742 0.186616
435 1 0.899283 0.0990214 0.186874
438 2 0.850415 0.150145 0.209888
441 1 -0.000388943 0.199274 0.186564
449 1 0.199949 0.199872 0.187058
457 1 0.399768 0.200692 0.187199
465 1 0.599069 0.200826 0.186979
473 1 0.800104 0.199881 0.186515
443 1 0.10016 0.300227 0.186741
448 2 0.150105 0.250102 0.209455
451 1 0.300085 0.29911 0.186925
456 2 0.349974 0.250059 0.210052
459 1 0.499729 0.300059 0.186544
464 2 0.54942 0.25037 0.20981
467 1 0.700315 0.299414 0.186798
472 2 0.750356 0.249688 0.209467
475 1 0.899802 0.299526 0.186775
480 2 0.950571 0.250181 0.209551
446 2 0.050327 0.349523 0.209385
454 2 0.249779 0.349751 0.209346
462 2 0.450174 0.350692 0.209672
470 2 0.650138 0.349037 0.209644
478 2 0.849772 0.350313 0.209351
481 1 0.00073775 0.399667 0.186551
488 2 0.149423 0.450436 0.209715
489 1 0.198895 0.399847 0.187095
496 2 0.349507 0.450201 0.20967
497 1 0.399942 0.400805 0.187104
505 1 0.600039 0.399708 0.186966
504 2 0.549441 0.448864 0.209898
512 2 0.749658 0.449655 0.209656
513 1 0.799671 0.399929 0.186489
520 2 0.950472 0.449905 0.209263
483 1 0.0993669 0.500333 0.187146
491 1 0.300163 0.500601 0.186754
499 1 0.500465 0.499681 0.187155
507 1 0.699154 0.499915 0.186642
515 1 0.899402 0.499785 0.187012
486 2 0.0501247 0.550165 0.209913
529 1 0.199754 0.599685 0.187066
494 2 0.249525 0.550222 0.209675
537 1 0.399937 0.600201 0.186468
502 2 0.449451 0.550341 0.209558
545 1 0.600221 0.599518 0.186573
510 2 0.649427 0.549512 0.209876
553 1 0.799953 0.600092 0.186787
518 2 0.849849 0.55048 0.209931
521 1 1.00093 0.599429 0.186621
528 2 0.149673 0.649494 0.209502
536 2 0.350247 0.649713 0.209427
544 2 0.550622 0.650075 0.209476
552 2 0.750359 0.650713 0.209206
560 2 0.950928 0.649423 0.209506
526 2 0.0499255 0.750093 0.209585
523 1 0.100614 0.700539 0.18656
531 1 0.299445 0.699408 0.187149
534 2 0.249152 0.749266 0.209938
542 2 0.449393 0.750394 0.20993
539 1 0.500034 0.700603 0.187099
550 2 0.65047 0.749384 0.209683
547 1 0.700062 0.700392 0.186521
555 1 0.900925 0.699889 0.18654
558 2 0.850368 0.749468 0.209368
569 1 0.199672 0.799672 0.187135
577 1 0.399994 0.800075 0.186792
585 1 0.600675 0.800183 0.187039
593 1 0.801024 0.800337 0.187104
561 1 1.00049 0.800022 0.186364
563 1 0.100558 0.899484 0.186728
568 2 0.150093 0.850113 0.209804
571 1 0.299448 0.899204 0.186491
576 2 0.349807 0.849993 0.209838
579 1 0.500312 0.899252 0.186442
584 2 0.550496 0.850006 0.20954
587 1 0.700286 0.900079 0.187213
592 2 0.750551 0.849891 0.209376
595 1 0.900265 0.900609 0.187192
600 2 0.950349 0.850219 0.209319
566 2 0.0499862 0.949286 0.209509
574 2 0.25062 0.949623 0.209559
582 2 0.450614 0.949366 0.209215
590 2 0.649573 0.949577 0.209463
598 2 0.84943 0.950512 0.20918
407 2 0.0498189 0.0506884 0.255267
402 1 0.0995911 -0.000497262 0.232393
410 1 0.300087 0.000357884 0.232665
415 2 0.249277 0.0496592 0.255612
423 2 0.450086 0.0498534 0.255239
418 1 0.500461 -0.000769194 0.232506
431 2 0.649589 0.0500232 0.255326
426 1 0.699367 0.000170482 0.232072
434 1 0.899224 -0.000847387 0.232355
439 2 0.850398 0.0496529 0.255505
404 1 -0.00090609 0.100211 0.232239
405 2 0.150014 0.15025 0.255027
412 1 0.200497 0.100396 0.232742
413 2 0.350248 0.150186 0.255274
420 1 0.400346 0.10031 0.232496
428 1 0.600227 0.10067 0.232192
421 2 0.549216 0.150087 0.254991
429 2 0.750552 0.14961 0.255588
436 1 0.800257 0.0998638 0.232619
437 2 0.950239 0.150139 0.255682
442 1 0.0995449 0.200459 0.232527
450 1 0.300425 0.200067 0.232442
458 1 0.49925 0.20007 0.232321
466 1 0.700291 0.199285 0.232347
474 1 0.9006 0.200023 0.232765
447 2 0.0497192 0.250011 0.255448
452 1 0.200171 0.300229 0.232627
455 2 0.250682 0.249895 0.254965
460 1 0.400671 0.299901 0.232351
463 2 0.449879 0.249562 0.255261
468 1 0.599365 0.300142 0.232555
471 2 0.649623 0.249619 0.254947
476 1 0.800017 0.2999 0.232382
479 2 0.850286 0.250274 0.255067
444 1 1.00019 0.300304 0.232343
445 2 0.149825 0.350482 0.254856
453 2 0.350035 0.350151 0.255197
461 2 0.549806 0.35066 0.255104
469 2 0.750131 0.350596 0.255103
477 2 0.949789 0.349609 0.255399
487 2 0.0499636 0.44938 0.255542
482 1 0.0998777 0.399904 0.232095
490 1 0.29983 0.400039 0.232193
495 2 0.249205 0.449605 0.254757
503 2 0.450214 0.450606 0.25494
498 1 0.499559 0.40033 0.23273
511 2 0.650432 0.450546 0.255428
506 1 0.699211 0.399704 0.232411
514 1 0.900013 0.400245 0.232333
519 2 0.850818 0.450104 0.255496
484 1 -1.65482e-05 0.499793 0.232684
492 1 0.199449 0.499994 0.232213
500 1 0.399594 0.500057 0.232336
508 1 0.599623 0.498866 0.232242
516 1 0.800879 0.499058 0.232301
522 1 0.100245 0.599999 0.232694
485 2 0.149703 0.549908 0.255512
530 1 0.299703 0.600175 0.23248
493 2 0.349969 0.550096 0.255272
538 1 0.500256 0.599596 0.232526
501 2 0.550377 0.549194 0.255506
546 1 0.700779 0.599911 0.232085
509 2 0.750894 0.549592 0.254965
554 1 0.900343 0.600528 0.232478
517 2 0.949958 0.550563 0.255408
527 2 0.0505764 0.649711 0.255478
535 2 0.249462 0.650328 0.255463
543 2 0.45088 0.650456 0.255258
551 2 0.650684 0.649537 0.255122
559 2 0.849623 0.650268 0.254823
525 2 0.149454 0.749522 0.255605
532 1 0.198877 0.699336 0.23253
533 2 0.350455 0.75088 0.254932
540 1 0.399921 0.699809 0.232482
548 1 0.600106 0.699734 0.232702
541 2 0.549821 0.750211 0.255404
549 2 0.749576 0.750091 0.255307
556 1 0.799395 0.700747 0.232398
524 1 1.00014 0.700035 0.232721
557 2 0.949613 0.750675 0.255486
562 1 0.100087 0.799871 0.232642
570 1 0.299468 0.799484 0.232306
578 1 0.500687 0.799606 0.232007
586 1 0.700402 0.800012 0.232251
594 1 0.900069 0.79993 0.232084
564 1 0.000163271 0.899911 0.232456
567 2 0.0505576 0.850732 0.255459
572 1 0.200133 0.899709 0.232434
575 2 0.249945 0.849548 0.255123
580 1 0.400816 0.90015 0.232244
583 2 0.451186 0.849656 0.254709
588 1 0.60006 0.900068 0.232535
591 2 0.649973 0.849686 0.255155
596 1 0.800479 0.89992 0.231903
599 2 0.849692 0.849958 0.254832
565 2 0.150545 0.950071 0.255369
573 2 0.350488 0.950045 0.255081
581 2 0.550359 0.949684 0.255544
589 2 0.749431 0.949168 0.254864
597 2 0.950453 0.950555 0.25533
609 1 0.199276 0.000132662 0.278632
625 1 0.599754 0.00024662 0.278047
603 1 0.100393 0.100682 0.278045
611 1 0.299486 0.100136 0.278108
619 1 0.49959 0.0996002 0.277943
627 1 0.699571 0.0993914 0.27822
635 1 0.90073 0.0999846 0.278388
641 1 -1.20384e-05 0.200006 0.278431
649 1 0.200024 0.200474 0.277775
657 1 0.400614 0.200061 0.277982
665 1 0.59903 0.200612 0.277785
673 1 0.800881 0.200412 0.278242
643 1 0.100702 0.300097 0.277882
651 1 0.300048 0.299691 0.277989
659 1 0.499738 0.299912 0.277759
667 1 0.700406 0.299509 0.277893
675 1 0.900105 0.299241 0.278209
681 1 0.000159373 0.399637 0.278398
689 1 0.1996 0.399675 0.2777
697 1 0.40058 0.400172 0.277699
705 1 0.600821 0.399659 0.278156
713 1 0.80025 0.400662 0.27791
683 1 0.0997882 0.499533 0.27836
691 1 0.299622 0.499531 0.277735
699 1 0.499988 0.499485 0.278283
707 1 0.700529 0.500323 0.278022
715 1 0.900557 0.50011 0.277964
729 1 0.19951 0.600301 0.278094
737 1 0.400345 0.600231 0.277589
745 1 0.600085 0.60054 0.27814
753 1 0.800347 0.60033 0.278036
721 1 1.0006 0.59991 0.277983
723 1 0.0996379 0.699883 0.278389
731 1 0.300607 0.70039 0.277789
739 1 0.499945 0.700824 0.278185
747 1 0.699355 0.700353 0.277776
755 1 0.899784 0.699388 0.277988
769 1 0.199911 0.799479 0.278035
777 1 0.400671 0.800688 0.277931
785 1 0.5998 0.800281 0.278125
793 1 0.800078 0.799955 0.277791
761 1 1.00013 0.801092 0.278323
763 1 0.100477 0.900767 0.278299
771 1 0.300058 0.900511 0.277858
779 1 0.500732 0.899438 0.277961
787 1 0.699824 0.89919 0.278259
795 1 0.899506 0.899768 0.277616
601 1 0.000259736 1.0005 0.278372
617 1 0.400399 0.999322 0.277797
633 1 0.799654 0.999041 0.278071
608 2 0.149398 0.0507027 0.301185
602 1 0.0999679 -0.00032526 0.323497
616 2 0.350222 0.0499241 0.300312
618 1 0.500441 0.000187904 0.323587
624 2 0.549739 0.0498421 0.300913
632 2 0.750053 0.0495625 0.300809
626 1 0.699731 -0.000252811 0.323628
634 1 0.899376 0.000600377 0.324127
640 2 0.950126 0.0495858 0.301235
606 2 0.0496912 0.149523 0.300971
604 1 -0.000299527 0.0999149 0.323624
612 1 0.200406 0.0998085 0.323791
614 2 0.250078 0.150541 0.300731
622 2 0.450343 0.150168 0.300996
620 1 0.399586 0.100217 0.323532
628 1 0.599936 0.0994606 0.323899
630 2 0.649046 0.149996 0.300535
636 1 0.800082 0.0997251 0.323505
638 2 0.850212 0.149705 0.30097
642 1 0.0992696 0.199463 0.323687
650 1 0.299426 0.200103 0.323892
658 1 0.499984 0.200153 0.323389
666 1 0.699773 0.199848 0.323757
674 1 0.900637 0.200203 0.323181
644 1 0.000519781 0.300093 0.323575
648 2 0.149526 0.249509 0.301182
652 1 0.200373 0.299954 0.323277
656 2 0.350033 0.249394 0.300918
660 1 0.39934 0.300054 0.323708
664 2 0.549337 0.250339 0.301012
668 1 0.599508 0.300351 0.323521
672 2 0.749979 0.249522 0.300991
676 1 0.799371 0.300464 0.323472
680 2 0.950748 0.250488 0.300928
646 2 0.0505888 0.349973 0.301088
654 2 0.249816 0.349931 0.300405
662 2 0.449581 0.349718 0.301012
670 2 0.650365 0.349195 0.300751
678 2 0.849959 0.349946 0.300524
688 2 0.149951 0.449783 0.301125
682 1 0.0999668 0.400292 0.324097
690 1 0.300154 0.400357 0.323387
696 2 0.350726 0.450143 0.300491
698 1 0.499622 0.39994 0.323831
704 2 0.550463 0.449374 0.300972
712 2 0.749553 0.449653 0.30077
706 1 0.699514 0.399795 0.32377
714 1 0.899695 0.400006 0.323485
720 2 0.94976 0.449734 0.300617
692 1 0.200709 0.499841 0.323725
700 1 0.400815 0.500389 0.323314
708 1 0.600103 0.500501 0.323891
716 1 0.800247 0.49938 0.323695
684 1 0.998758 0.499951 0.323688
686 2 0.0492849 0.549383 0.301146
722 1 0.0991132 0.599906 0.323902
694 2 0.250168 0.549993 0.300617
730 1 0.300273 0.599671 0.323506
702 2 0.450314 0.5506 0.300409
738 1 0.499685 0.600477 0.323367
710 2 0.650359 0.550278 0.300873
746 1 0.70015 0.600761 0.323904
718 2 0.850193 0.54957 0.300672
754 1 0.900166 0.599436 0.323705
728 2 0.149559 0.649885 0.301153
736 2 0.350523 0.650146 0.300591
744 2 0.549623 0.650632 0.300729
752 2 0.749698 0.650653 0.300627
760 2 0.950173 0.649802 0.300691
726 2 0.0498434 0.750522 0.300843
732 1 0.199843 0.699866 0.323833
734 2 0.249722 0.749484 0.301042
742 2 0.449611 0.749729 0.300886
740 1 0.400278 0.699966 0.323679
748 1 0.599893 0.699957 0.323967
750 2 0.649167 0.749617 0.30082
756 1 0.799364 0.700497 0.323491
758 2 0.849764 0.74977 0.300625
724 1 0.999164 0.700643 0.323455
762 1 0.100713 0.799643 0.323796
770 1 0.300147 0.799961 0.323561
778 1 0.500687 0.799043 0.323323
786 1 0.699375 0.799506 0.323505
794 1 0.898968 0.800141 0.323641
764 1 -0.00027269 0.899972 0.323863
768 2 0.150174 0.850149 0.300658
772 1 0.199208 0.900194 0.32364
776 2 0.350271 0.850441 0.300864
780 1 0.40025 0.899626 0.324005
784 2 0.550653 0.850406 0.301254
788 1 0.599719 0.900528 0.324113
792 2 0.750248 0.84943 0.300969
796 1 0.799976 0.900504 0.323222
800 2 0.949131 0.850526 0.300935
766 2 0.0500446 0.949925 0.301112
774 2 0.249563 0.949852 0.301175
610 1 0.300046 1.00029 0.323375
782 2 0.450756 0.949681 0.300888
790 2 0.6492 0.949552 0.300893
798 2 0.850483 0.94982 0.30087
607 2 0.0503235 0.0498084 0.3463
809 1 0.199323 -0.000647343 0.368971
615 2 0.249942 0.0494081 0.346574
623 2 0.449344 0.0494951 0.346274
825 1 0.600124 5.76357e-06 0.369273
631 2 0.650479 0.0503283 0.346786
833 1 0.80023 1.3038e-05 0.3691
639 2 0.849657 0.0509613 0.346747
801 1 0.999873 0.000159262 0.36905
605 2 0.149381 0.14956 0.346129
803 1 0.0999952 0.100168 0.369268
811 1 0.300372 0.0993709 0.368824
613 2 0.349629 0.150178 0.346384
819 1 0.499215 0.0996041 0.369161
621 2 0.549193 0.150038 0.34629
629 2 0.750099 0.149552 0.34641
827 1 0.700286 0.100349 0.369226
835 1 0.899875 0.100282 0.369184
637 2 0.949612 0.150471 0.346441
849 1 0.198912 0.199548 0.369428
857 1 0.399865 0.200246 0.369131
865 1 0.599661 0.19996 0.36899
873 1 0.800178 0.199902 0.368717
841 1 1.00007 0.19989 0.369415
647 2 0.0497894 0.24967 0.346303
843 1 0.0997172 0.300445 0.36896
655 2 0.249569 0.250056 0.346672
851 1 0.299973 0.299936 0.369555
663 2 0.450356 0.249698 0.346079
859 1 0.50048 0.299632 0.36927
671 2 0.649642 0.250258 0.346513
867 1 0.699395 0.299463 0.369359
679 2 0.850266 0.250084 0.345994
875 1 0.899869 0.300463 0.369461
645 2 0.150359 0.349691 0.346194
653 2 0.349196 0.350121 0.346455
661 2 0.550341 0.350743 0.346342
669 2 0.749405 0.349507 0.346799
677 2 0.950206 0.350277 0.346272
687 2 0.0495989 0.450787 0.346177
881 1 0.000436692 0.400501 0.369016
889 1 0.199505 0.400666 0.368936
695 2 0.250743 0.450056 0.346546
703 2 0.450343 0.450469 0.346827
897 1 0.39952 0.39972 0.369088
905 1 0.600361 0.400734 0.369148
711 2 0.650034 0.450745 0.346509
913 1 0.800466 0.399512 0.369213
719 2 0.85037 0.449966 0.346716
883 1 0.0998294 0.499607 0.369407
891 1 0.300079 0.500232 0.369398
899 1 0.500589 0.499953 0.369585
907 1 0.700276 0.499553 0.369616
915 1 0.899684 0.500234 0.369115
921 1 0.00040481 0.600224 0.369414
685 2 0.150279 0.549579 0.346301
929 1 0.200552 0.599951 0.369017
693 2 0.350245 0.549317 0.346205
937 1 0.400522 0.599046 0.369189
701 2 0.54955 0.550378 0.346691
945 1 0.599239 0.600049 0.369736
709 2 0.749761 0.549452 0.346479
953 1 0.80034 0.599425 0.369081
717 2 0.950148 0.55021 0.34682
727 2 0.0490278 0.65077 0.346261
735 2 0.250317 0.650146 0.346221
743 2 0.450242 0.650296 0.346477
751 2 0.649365 0.649883 0.347027
759 2 0.849669 0.649976 0.346077
725 2 0.15036 0.749873 0.346687
923 1 0.0992973 0.700326 0.368831
931 1 0.299944 0.700065 0.369532
733 2 0.350342 0.749712 0.346742
939 1 0.499989 0.700265 0.369132
741 2 0.550292 0.750117 0.346766
749 2 0.749068 0.749685 0.346639
947 1 0.699665 0.699701 0.36966
955 1 0.899242 0.699628 0.369489
757 2 0.949045 0.750109 0.346614
961 1 -0.000431758 0.799915 0.369441
969 1 0.199913 0.800723 0.369363
977 1 0.399638 0.800314 0.369593
985 1 0.600035 0.800414 0.369231
993 1 0.799296 0.799814 0.369293
767 2 0.049728 0.849129 0.346312
963 1 0.0992078 0.89949 0.369405
775 2 0.249656 0.850752 0.346227
971 1 0.30007 0.899685 0.369533
783 2 0.450623 0.848924 0.346366
979 1 0.500296 0.899938 0.369158
791 2 0.650094 0.8503 0.346455
987 1 0.700038 0.899725 0.369244
799 2 0.848829 0.850352 0.346266
995 1 0.899745 0.899755 0.368896
765 2 0.149426 0.949254 0.346414
773 2 0.349199 0.949507 0.346301
817 1 0.399304 0.999593 0.369293
781 2 0.550257 0.950474 0.346429
789 2 0.749912 0.949514 0.346286
797 2 0.950011 0.950393 0.346606
808 2 0.149886 0.0497915 0.392018
816 2 0.34973 0.050006 0.391937
824 2 0.549808 0.0496791 0.391914
832 2 0.749297 0.0494714 0.391757
840 2 0.94994 0.0500301 0.391785
806 2 0.0499975 0.149972 0.392299
814 2 0.249555 0.148872 0.391576
822 2 0.449554 0.149709 0.392361
830 2 0.649451 0.149844 0.391779
838 2 0.849366 0.150027 0.391695
848 2 0.14988 0.250977 0.392136
856 2 0.349577 0.249908 0.392175
864 2 0.550098 0.24954 0.391895
872 2 0.750104 0.249571 0.391606
880 2 0.950443 0.25006 0.392032
846 2 0.0504985 0.350766 0.391897
854 2 0.249873 0.350774 0.391915
862 2 0.449299 0.349153 0.392319
870 2 0.649583 0.349419 0.391964
878 2 0.849886 0.350181 0.392241
888 2 0.150251 0.450544 0.392342
896 2 0.349685 0.449935 0.392281
904 2 0.549759 0.450009 0.392192
912 2 0.750832 0.449546 0.392311
920 2 0.949696 0.450308 0.391976
886 2 0.0499265 0.550088 0.392026
894 2 0.250407 0.550119 0.391793
902 2 0.450489 0.549249 0.392255
910 2 0.650191 0.550447 0.391856
918 2 0.850367 0.549826 0.392148
928 2 0.149853 0.650468 0.391561
936 2 0.350147 0.649208 0.391991
944 2 0.549807 0.65067 0.392562
952 2 0.74995 0.649596 0.391861
960 2 0.94997 0.649483 0.391927
926 2 0.0498087 0.749827 0.391907
934 2 0.250375 0.75069 0.392205
942 2 0.450501 0.750555 0.391858
950 2 0.649621 0.750487 0.391883
958 2 0.849302 0.750272 0.392217
968 2 0.149891 0.850497 0.392128
976 2 0.349897 0.850155 0.392424
984 2 0.549868 0.850249 0.392296
992 2 0.749883 0.850167 0.39211
1000 2 0.949714 0.850586 0.392169
966 2 0.0502213 0.950672 0.392157
974 2 0.250171 0.950413 0.391934
982 2 0.450332 0.950436 0.392361
990 2 0.650695 0.950709 0.391676
998 2 0.850512 0.949875 0.392156
807 2 0.049789 0.0491815 0.437788
802 1 0.100298 0.000416771 0.415133
810 1 0.300345 -0.00044356 0.414775
815 2 0.250586 0.0497996 0.43758
823 2 0.449476 0.049869 0.437979
831 2 0.649734 0.0503412 0.438074
826 1 0.699774 0.00040554 0.414907
834 1 0.899818 0.000448006 0.414918
839 2 0.849562 0.0505899 0.437542
804 1 0.000111185 0.0993892 0.415047
805 2 0.150009 0.14966 0.43794
812 1 0.19966 0.0997981 0.414896
813 2 0.349794 0.150368 0.437596
820 1 0.399704 0.0995487 0.415105
821 2 0.549895 0.149629 0.437493
828 1 0.600053 0.0996892 0.414801
829 2 0.748967 0.149858 0.437563
836 1 0.798848 0.100029 0.414398
837 2 0.950037 0.150075 0.437842
842 1 0.100419 0.200383 0.414988
850 1 0.299106 0.199585 0.414514
858 1 0.500139 0.200501 0.415063
866 1 0.699458 0.200236 0.414517
874 1 0.900348 0.199506 0.414597
844 1 6.26746e-05 0.300044 0.414792
847 2 0.049696 0.250105 0.437881
852 1 0.200622 0.300075 0.414905
855 2 0.250564 0.250028 0.438026
860 1 0.399405 0.299265 0.415134
863 2 0.450301 0.250539 0.438056
868 1 0.599677 0.299804 0.415021
871 2 0.650437 0.250027 0.437802
876 1 0.800111 0.299748 0.414551
879 2 0.849824 0.249753 0.4373
845 2 0.150302 0.349599 0.43768
853 2 0.350168 0.349912 0.437524
861 2 0.550944 0.350915 0.437847
869 2 0.749617 0.349981 0.437373
877 2 0.949676 0.349845 0.437785
887 2 0.0493407 0.449568 0.438031
882 1 0.100155 0.400391 0.415316
890 1 0.30006 0.399852 0.415039
895 2 0.249836 0.449509 0.437581
903 2 0.449276 0.450581 0.437875
898 1 0.49969 0.399863 0.415128
911 2 0.650552 0.450726 0.438076
906 1 0.699142 0.400173 0.414696
914 1 0.899915 0.399485 0.414789
919 2 0.850579 0.449435 0.437398
892 1 0.200819 0.500411 0.414671
900 1 0.399328 0.500629 0.415118
908 1 0.600367 0.499903 0.414786
916 1 0.800786 0.499816 0.414935
884 1 1.00022 0.499625 0.415061
885 2 0.150507 0.550012 0.437316
922 1 0.099653 0.600764 0.414858
930 1 0.300305 0.59908 0.415047
893 2 0.350235 0.549916 0.438328
938 1 0.499388 0.599773 0.415018
901 2 0.549842 0.550418 0.437664
909 2 0.75005 0.54964 0.437587
946 1 0.699971 0.600217 0.415068
954 1 0.900267 0.5998 0.414957
917 2 0.950659 0.550328 0.437881