ITEM: TIMESTEP
100
ITEM: NUMBER OF ATOMS
1250
ITEM: BOX BOUNDS pp pp pp
0.0000000000000000e+00 3.4500000000000000e+01
0.0000000000000000e+00 3.4500000000000000e+01
-1.3800000000000001e+01 5.5200000000000003e+01
ITEM: ATOMS id type xs ys zs
1 1 0 0 0
8 2 0.15 0.05 0.025
9 1 0.2 0 0
16 2 0.35 0.05 0.025
17 1 0.4 0 0
24 2 0.55 0.05 0.025
25 1 0.6 0 0
32 2 0.75 0.05 0.025
33 1 0.8 0 0
40 2 0.95 0.05 0.025
6 2 0.05 0.15 0.025
3 1 0.1 0.1 0
11 1 0.3 0.1 0
14 2 0.25 0.15 0.025
22 2 0.45 0.15 0.025
19 1 0.5 0.1 0
30 2 0.65 0.15 0.025
27 1 0.7 0.1 0
35 1 0.9 0.1 0
38 2 0.85 0.15 0.025
41 1 0 0.2 0
49 1 0.2 0.2 0
57 1 0.4 0.2 0
65 1 0.6 0.2 0
73 1 0.8 0.2 0
43 1 0.1 0.3 0
48 2 0.15 0.25 0.025
51 1 0.3 0.3 0
56 2 0.35 0.25 0.025
59 1 0.5 0.3 0
64 2 0.55 0.25 0.025
67 1 0.7 0.3 0
72 2 0.75 0.25 0.025
75 1 0.9 0.3 0
80 2 0.95 0.25 0.025
46 2 0.05 0.35 0.025
54 2 0.25 0.35 0.025
62 2 0.45 0.35 0.025
70 2 0.65 0.35 0.025
78 2 0.85 0.35 0.025
81 1 0 0.4 0
88 2 0.15 0.45 0.025
89 1 0.2 0.4 0
96 2 0.35 0.45 0.025
97 1 0.4 0.4 0
104 2 0.55 0.45 0.025
105 1 0.6 0.4 0
112 2 0.75 0.45 0.025
113 1 0.8 0.4 0
120 2 0.95 0.45 0.025
83 1 0.1 0.5 0
91 1 0.3 0.5 0
99 1 0.5 0.5 0
107 1 0.7 0.5 0
115 1 0.9 0.5 0
86 2 0.05 0.55 0.025
121 1 0 0.6 0
129 1 0.2 0.6 0
94 2 0.25 0.55 0.025
102 2 0.45 0.55 0.025
137 1 0.4 0.6 0
145 1 0.6 0.6 0
110 2 0.65 0.55 0.025
153 1 0.8 0.6 0
118 2 0.85 0.55 0.025
128 2 0.15 0.65 0.025
136 2 0.35 0.65 0.025
144 2 0.55 0.65 0.025
152 2 0.75 0.65 0.025
160 2 0.95 0.65 0.025
126 2 0.05 0.75 0.025
123 1 0.1 0.7 0
131 1 0.3 0.7 0
134 2 0.25 0.75 0.025
142 2 0.45 0.75 0.025
139 1 0.5 0.7 0
150 2 0.65 0.75 0.025
147 1 0.7 0.7 0
155 1 0.9 0.7 0
158 2 0.85 0.75 0.025
161 1 0 0.8 0
169 1 0.2 0.8 0
177 1 0.4 0.8 0
185 1 0.6 0.8 0
193 1 0.8 0.8 0
163 1 0.1 0.9 0
168 2 0.15 0.85 0.025
171 1 0.3 0.9 0
176 2 0.35 0.85 0.025
179 1 0.5 0.9 0
184 2 0.55 0.85 0.025
187 1 0.7 0.9 0
192 2 0.75 0.85 0.025
195 1 0.9 0.9 0
200 2 0.95 0.85 0.025
166 2 0.05 0.95 0.025
174 2 0.25 0.95 0.025
182 2 0.45 0.95 0.025
190 2 0.65 0.95 0.025
198 2 0.85 0.95 0.025
7 2 0.0500043 0.0500371 0.0744024
2 1 0.1 0 0.05
10 1 0.3 0 0.05
15 2 0.249974 0.0500016 0.0744166
23 2 0.450023 0.050012 0.0744198
18 1 0.5 0 0.05
31 2 0.650018 0.0500024 0.0744015
26 1 0.7 0 0.05
34 1 0.9 0 0.05
39 2 0.850028 0.050008 0.0744071
4 1 0 0.1 0.05
5 2 0.149969 0.150008 0.0743873
12 1 0.2 0.1 0.05
13 2 0.349981 0.150016 0.0744205
20 1 0.4 0.1 0.05
21 2 0.55001 0.150019 0.074387
28 1 0.6 0.1 0.05
29 2 0.750037 0.149974 0.0743915
36 1 0.8 0.1 0.05
37 2 0.950014 0.149959 0.074421
42 1 0.1 0.2 0.05
50 1 0.3 0.2 0.05
58 1 0.5 0.2 0.05
66 1 0.7 0.2 0.05
74 1 0.9 0.2 0.05
44 1 0 0.3 0.05
47 2 0.0499662 0.25003 0.0743788
52 1 0.2 0.3 0.05
55 2 0.249989 0.250035 0.074423
60 1 0.4 0.3 0.05
63 2 0.449992 0.24998 0.0744085
68 1 0.6 0.3 0.05
71 2 0.650038 0.249955 0.0743972
76 1 0.8 0.3 0.05
79 2 0.849969 0.250032 0.074393
45 2 0.149956 0.350038 0.0743866
53 2 0.349982 0.349998 0.074388
61 2 0.550042 0.349998 0.0744002
69 2 0.75001 0.349955 0.0743971
77 2 0.949998 0.350026 0.0744158
87 2 0.049967 0.449969 0.0743961
82 1 0.1 0.4 0.05
90 1 0.3 0.4 0.05
95 2 0.250032 0.450019 0.0744118
103 2 0.449976 0.449995 0.0743818
98 1 0.5 0.4 0.05
111 2 0.650016 0.449954 0.0744004
106 1 0.7 0.4 0.05
114 1 0.9 0.4 0.05
119 2 0.850012 0.449952 0.0743879
84 1 0 0.5 0.05
92 1 0.2 0.5 0.05
100 1 0.4 0.5 0.05
108 1 0.6 0.5 0.05
116 1 0.8 0.5 0.05
85 2 0.149956 0.549986 0.0744012
122 1 0.1 0.6 0.05
130 1 0.3 0.6 0.05
93 2 0.349988 0.550029 0.0744063
138 1 0.5 0.6 0.05
101 2 0.550014 0.550045 0.0744203
109 2 0.750038 0.549964 0.0744191
146 1 0.7 0.6 0.05
154 1 0.9 0.6 0.05
117 2 0.950005 0.550043 0.0743897
127 2 0.0500458 0.650033 0.0743834
135 2 0.249978 0.64999 0.0744102
143 2 0.450005 0.650035 0.0743869
151 2 0.649965 0.650006 0.0743823
159 2 0.850011 0.650025 0.0744145
124 1 0 0.7 0.05
125 2 0.150047 0.750004 0.07442
132 1 0.2 0.7 0.05
133 2 0.350005 0.749971 0.074392
140 1 0.4 0.7 0.05
141 2 0.549971 0.750027 0.074417
148 1 0.6 0.7 0.05
149 2 0.74999 0.750009 0.0743971
156 1 0.8 0.7 0.05
157 2 0.950003 0.750031 0.0743992
162 1 0.1 0.8 0.05
170 1 0.3 0.8 0.05
178 1 0.5 0.8 0.05
186 1 0.7 0.8 0.05
194 1 0.9 0.8 0.05
164 1 0 0.9 0.05
167 2 0.0499991 0.850046 0.074386
172 1 0.2 0.9 0.05
175 2 0.250028 0.849993 0.0744154
180 1 0.4 0.9 0.05
183 2 0.450031 0.850042 0.0743945
188 1 0.6 0.9 0.05
191 2 0.650026 0.849955 0.0744179
196 1 0.8 0.9 0.05
199 2 0.850042 0.849999 0.0744152
165 2 0.149955 0.949983 0.0744206
173 2 0.349997 0.949991 0.0744137
181 2 0.549962 0.949987 0.0743967
189 2 0.750033 0.950008 0.0743878
197 2 0.949966 0.94998 0.0743896
203 1 0.100039 0.100007 0.0987961
211 1 0.300009 0.100016 0.0988164
219 1 0.500027 0.100045 0.0987915
227 1 0.700012 0.100031 0.0987952
235 1 0.900029 0.100002 0.0987943
249 1 0.200045 0.199958 0.0988098
257 1 0.400019 0.200005 0.0988319
265 1 0.599983 0.200036 0.0988206
273 1 0.79997 0.200034 0.0987968
241 1 1 0.200027 0.0988156
243 1 0.0999777 0.299954 0.0988297
251 1 0.299971 0.299983 0.0987903
259 1 0.500004 0.299958 0.0988036
267 1 0.700039 0.299988 0.0988167
275 1 0.900023 0.300025 0.0988241
289 1 0.200005 0.39999 0.0988226
297 1 0.400025 0.400007 0.0987923
305 1 0.600015 0.39995 0.0988397
313 1 0.800018 0.399994 0.0988351
281 1 1 0.399955 0.0987999
283 1 0.100004 0.50004 0.0987926
291 1 0.299951 0.499998 0.0988201
299 1 0.500042 0.500036 0.0988337
307 1 0.700024 0.500031 0.0988083
315 1 0.899976 0.499954 0.0988224
329 1 0.199971 0.599976 0.0988215
337 1 0.400033 0.600024 0.0988374
345 1 0.600049 0.599952 0.0988152
353 1 0.799957 0.599986 0.0988059
321 1 0.999979 0.600045 0.0988213
323 1 0.100003 0.699998 0.0987969
331 1 0.300023 0.699989 0.0987905
339 1 0.499961 0.70005 0.0988341
347 1 0.700041 0.699979 0.0988368
355 1 0.899985 0.700001 0.0988238
369 1 0.20005 0.800046 0.09881
377 1 0.399966 0.800028 0.0988159
385 1 0.599981 0.800024 0.0988337
393 1 0.799968 0.799993 0.098825
361 1 1.00002 0.800009 0.0988168
363 1 0.0999816 0.899953 0.0988
371 1 0.300005 0.899998 0.0988398
379 1 0.499997 0.899954 0.0988251
387 1 0.700034 0.900003 0.0988035
395 1 0.899966 0.899969 0.0988129
209 1 0.200003 0.999967 0.0988103
217 1 0.399963 1.00004 0.0988237
225 1 0.599959 0.999962 0.0988098
233 1 0.800038 0.999982 0.0987908
201 1 1.00001 1.00002 0.0988276
208 2 0.149958 0.0500292 0.12321
216 2 0.350005 0.0500386 0.123217
224 2 0.549961 0.0500304 0.123253
232 2 0.750012 0.0500282 0.123233
240 2 0.950005 0.0500313 0.123216
206 2 0.0500293 0.150013 0.123219
212 1 0.199986 0.100028 0.147667
214 2 0.25 0.150029 0.123229
220 1 0.399986 0.0999534 0.147623
222 2 0.449982 0.14998 0.123209
228 1 0.599975 0.100014 0.147645
230 2 0.650018 0.14999 0.123214
236 1 0.799981 0.0999856 0.147633
238 2 0.84996 0.149981 0.123253
204 1 0.999964 0.1 0.147642
242 1 0.100047 0.199985 0.147647
250 1 0.300018 0.199988 0.147667
258 1 0.499967 0.200001 0.147646
266 1 0.70001 0.200009 0.14762
274 1 0.89995 0.19998 0.147653
248 2 0.14997 0.250031 0.123216
252 1 0.200003 0.300043 0.147634
256 2 0.350013 0.249994 0.123228
260 1 0.400047 0.299955 0.147666
264 2 0.549999 0.250001 0.123229
268 1 0.599991 0.300037 0.147649
272 2 0.750013 0.249957 0.123227
276 1 0.800009 0.300027 0.147654
244 1 0.999996 0.299978 0.147626
280 2 0.950001 0.249963 0.123214
246 2 0.0500412 0.349968 0.123217
254 2 0.249973 0.350018 0.123215
262 2 0.449975 0.350007 0.123248
270 2 0.650026 0.350038 0.123234
278 2 0.849986 0.350041 0.123215
282 1 0.100025 0.399961 0.147661
288 2 0.150033 0.449974 0.123246
290 1 0.299975 0.399951 0.147654
296 2 0.349995 0.45 0.123253
298 1 0.50001 0.399977 0.147662
304 2 0.55 0.449996 0.123223
306 1 0.700007 0.399954 0.147638
312 2 0.750029 0.450003 0.123221
314 1 0.899975 0.399986 0.147646
320 2 0.94998 0.450029 0.123242
292 1 0.200038 0.49995 0.147633
300 1 0.40002 0.500047 0.14764
308 1 0.600015 0.499981 0.147639
316 1 0.79999 0.500026 0.14763
284 1 0.999993 0.499982 0.147639
286 2 0.0499969 0.549973 0.12321
322 1 0.100032 0.600013 0.147666
294 2 0.249961 0.549991 0.123207
330 1 0.300018 0.600047 0.147642
302 2 0.450026 0.550034 0.123244
338 1 0.500029 0.599977 0.147623
310 2 0.64998 0.550008 0.123216
346 1 0.700017 0.600043 0.14763
318 2 0.849983 0.55002 0.123206
354 1 0.899955 0.599949 0.147666
328 2 0.15001 0.650029 0.123224
336 2 0.349985 0.650023 0.123253
344 2 0.549988 0.649961 0.123222
352 2 0.749969 0.649983 0.123223
360 2 0.949957 0.65002 0.12322
326 2 0.0499582 0.74998 0.123211
332 1 0.200026 0.700011 0.14765
334 2 0.250027 0.75003 0.123239
340 1 0.399965 0.699957 0.147652
342 2 0.45003 0.750015 0.123253
348 1 0.600002 0.699962 0.147648
350 2 0.650043 0.749997 0.123249
356 1 0.800035 0.700019 0.147668
358 2 0.850042 0.750013 0.123212
324 1 1.00005 0.699971 0.14764
362 1 0.100018 0.800027 0.147649
370 1 0.299985 0.799987 0.147652
378 1 0.500015 0.800011 0.147667
386 1 0.700049 0.799991 0.147663
394 1 0.899972 0.799959 0.147649
368 2 0.150009 0.849987 0.123214
372 1 0.199957 0.9 0.147665
376 2 0.349966 0.850021 0.123243
380 1 0.400049 0.899993 0.147649
384 2 0.550048 0.850047 0.123217
388 1 0.600049 0.900004 0.147642
392 2 0.750011 0.850036 0.123251
396 1 0.800017 0.899964 0.147665
364 1 1.00003 0.899995 0.147635
400 2 0.950033 0.849973 0.123249
366 2 0.0500019 0.950039 0.123222
202 1 0.100009 1.00001 0.14766
210 1 0.299961 1.00004 0.147651
374 2 0.249961 0.949963 0.123225
382 2 0.450008 0.950043 0.123209
218 1 0.499975 1.00001 0.147638
390 2 0.649955 0.949991 0.123221
226 1 0.699992 0.999965 0.147629
234 1 0.900043 0.999953 0.147629
398 2 0.850031 0.950024 0.123224
207 2 0.0500151 0.0499946 0.172042
215 2 0.250018 0.0499697 0.172043
223 2 0.450043 0.0499579 0.172047
231 2 0.649987 0.0500163 0.172065
239 2 0.850003 0.0499667 0.172034
205 2 0.150031 0.15001 0.17206
213 2 0.350022 0.149987 0.172073
221 2 0.549953 0.150016 0.172071
229 2 0.750001 0.149973 0.172045
237 2 0.949969 0.14996 0.172066
247 2 0.0500381 0.250013 0.172066
255 2 0.249991 0.24997 0.17207
263 2 0.449974 0.249995 0.172047
271 2 0.650043 0.249965 0.172063
279 2 0.849963 0.250007 0.172041
245 2 0.149975 0.350038 0.17204
253 2 0.350039 0.34997 0.172076
261 2 0.550004 0.349979 0.172048
269 2 0.750016 0.350009 0.172036
277 2 0.950009 0.35 0.172052
287 2 0.0500031 0.449999 0.17206
295 2 0.249958 0.450046 0.172078
303 2 0.450023 0.450006 0.172053
311 2 0.649969 0.449997 0.172046
319 2 0.849983 0.450003 0.172069
285 2 0.14996 0.549993 0.17208
293 2 0.350048 0.550042 0.172049
301 2 0.549995 0.55 0.17207
309 2 0.749991 0.54997 0.172081
317 2 0.950047 0.549965 0.172068
327 2 0.0499923 0.65 0.172036
335 2 0.250026 0.649961 0.172079
343 2 0.450024 0.649973 0.172035
351 2 0.649957 0.650024 0.172068
359 2 0.850021 0.649969 0.172056
325 2 0.150016 0.750022 0.172043
333 2 0.350017 0.749954 0.172054
341 2 0.549998 0.749965 0.172067
349 2 0.750023 0.750018 0.172079
357 2 0.950023 0.749966 0.172037
367 2 0.050029 0.849959 0.172046
375 2 0.249967 0.84997 0.172041
383 2 0.449979 0.849998 0.172056
391 2 0.650045 0.850012 0.172073
399 2 0.850041 0.849961 0.172082
365 2 0.15001 0.949989 0.172047
373 2 0.349968 0.95002 0.172058
381 2 0.549987 0.949974 0.172044
389 2 0.749959 0.950026 0.172074
397 2 0.949959 0.949957 0.172065
408 2 0.150003 0.0500262 0.220905
416 2 0.349963 0.0500097 0.220899
424 2 0.550036 0.0499587 0.220886
432 2 0.750017 0.0500359 0.220881
440 2 0.949967 0.0499565 0.220907
406 2 0.0499967 0.149972 0.220885
403 1 0.100003 0.100017 0.196496
411 1 0.299951 0.0999781 0.196493
414 2 0.249981 0.150041 0.220893
422 2 0.449963 0.149978 0.22088
419 1 0.500019 0.0999961 0.19648
430 2 0.649971 0.150045 0.220875
427 1 0.699953 0.100034 0.19646
435 1 0.899972 0.0999727 0.196472
438 2 0.850042 0.150006 0.220906
449 1 0.199995 0.199994 0.196492
457 1 0.399992 0.200048 0.196498
465 1 0.599951 0.200041 0.196495
473 1 0.799993 0.200025 0.196457
441 1 0.999962 0.199954 0.196464
443 1 0.0999729 0.300019 0.196481
448 2 0.150013 0.249983 0.220864
451 1 0.300005 0.299953 0.196477
456 2 0.349993 0.249989 0.220908
459 1 0.499996 0.300002 0.196453
464 2 0.550001 0.249998 0.220893
467 1 0.699992 0.299956 0.196485
472 2 0.750025 0.250004 0.220872
475 1 0.899993 0.299961 0.196481
480 2 0.950044 0.250042 0.220879
446 2 0.0500272 0.349958 0.220872
454 2 0.249972 0.34999 0.22087
462 2 0.44999 0.350033 0.220894
470 2 0.650032 0.349959 0.220892
478 2 0.849992 0.350033 0.22087
488 2 0.149988 0.450026 0.220902
489 1 0.199953 0.399969 0.196492
496 2 0.349977 0.44999 0.22089
497 1 0.399987 0.40004 0.196496
504 2 0.549961 0.449952 0.220905
505 1 0.600003 0.400007 0.196479
512 2 0.75 0.449987 0.220901
513 1 0.800007 0.399987 0.196455
481 1 1.00004 0.399994 0.19646
520 2 0.950019 0.45001 0.220866
483 1 0.0999674 0.500041 0.196491
491 1 0.300007 0.499996 0.196471
499 1 0.50005 0.49997 0.196484
507 1 0.699963 0.500027 0.196451
515 1 0.899968 0.499964 0.196481
486 2 0.0500094 0.550004 0.220884
529 1 0.200005 0.599983 0.196496
494 2 0.249958 0.550037 0.220887
502 2 0.44997 0.550037 0.220892
537 1 0.399963 0.599992 0.19646
545 1 0.600013 0.599974 0.196448
510 2 0.649963 0.549963 0.220907
553 1 0.799985 0.600018 0.196472
518 2 0.849976 0.550013 0.220908
521 1 1.00004 0.599961 0.196467
528 2 0.149998 0.649973 0.220883
536 2 0.350021 0.649992 0.220869
544 2 0.550044 0.650041 0.220878
552 2 0.750035 0.650022 0.220867
560 2 0.950035 0.649954 0.220891
526 2 0.0499816 0.750007 0.220887
523 1 0.100049 0.700038 0.196465
531 1 0.299963 0.69995 0.196489
534 2 0.249965 0.749983 0.220902
542 2 0.449961 0.750034 0.220909
539 1 0.500043 0.700046 0.196486
550 2 0.650043 0.749954 0.220883
547 1 0.699988 0.700041 0.196463
555 1 0.900029 0.700031 0.196458
558 2 0.850015 0.749978 0.22087
569 1 0.199985 0.799974 0.19649
577 1 0.400031 0.800007 0.196471
585 1 0.600012 0.800045 0.196493
593 1 0.80005 0.800036 0.196489
561 1 1.00005 0.800006 0.196452
563 1 0.100048 0.899961 0.196475
568 2 0.150009 0.85004 0.220892
571 1 0.299955 0.899983 0.196466
576 2 0.349993 0.850002 0.220903
579 1 0.500007 0.899975 0.196456
584 2 0.550029 0.84998 0.22088
587 1 0.700005 0.900006 0.196495
592 2 0.750024 0.849993 0.220869
595 1 0.900041 0.900046 0.196495
600 2 0.949995 0.850031 0.220871
566 2 0.0499961 0.949979 0.220895
409 1 0.199976 1 0.19649
574 2 0.250047 0.949971 0.220874
417 1 0.399974 0.99997 0.196491
582 2 0.450008 0.949958 0.22087
425 1 0.599969 1.00002 0.196458
590 2 0.65 0.949954 0.220887
433 1 0.799957 1.00003 0.196459
598 2 0.849989 0.950019 0.220876
401 1 0.999972 0.99999 0.196485
412 1 0.200027 0.10002 0.245321
420 1 0.400033 0.10004 0.245303
428 1 0.600012 0.100049 0.245284
436 1 0.799981 0.100001 0.245312
404 1 0.999957 0.10002 0.245284
442 1 0.0999617 0.200043 0.245322
450 1 0.300018 0.200025 0.245302
458 1 0.499975 0.200015 0.245307
466 1 0.699997 0.199952 0.245298
474 1 0.899997 0.199974 0.245325
452 1 0.200015 0.300034 0.245324
460 1 0.400051 0.299981 0.245285
468 1 0.599958 0.30001 0.245313
476 1 0.800002 0.29996 0.24531
444 1 0.999985 0.300024 0.245291
482 1 0.100028 0.399981 0.245281
490 1 0.300012 0.40003 0.245293
498 1 0.499984 0.400039 0.245322
506 1 0.699956 0.399966 0.245299
514 1 0.899977 0.400022 0.245301
492 1 0.199984 0.499961 0.245281
500 1 0.399984 0.499993 0.2453
508 1 0.599997 0.49995 0.245278
516 1 0.800051 0.499959 0.245286
484 1 1.00001 0.499973 0.245312
522 1 0.10002 0.600008 0.245321
530 1 0.299988 0.599989 0.245301
538 1 0.499973 0.599963 0.245312
546 1 0.700031 0.600003 0.245292
554 1 0.900025 0.60004 0.245306
532 1 0.199958 0.699956 0.245298
540 1 0.399994 0.7 0.245304
548 1 0.599985 0.699972 0.245307
556 1 0.79995 0.700044 0.245309
524 1 1.00001 0.700007 0.245307
562 1 0.10001 0.799976 0.245313
570 1 0.299978 0.799962 0.245303
578 1 0.500018 0.79998 0.24528
586 1 0.700019 0.800001 0.245297
594 1 0.900024 0.799965 0.245292
572 1 0.199985 0.899956 0.245302
580 1 0.400051 0.90002 0.245286
588 1 0.600014 0.900018 0.245304
596 1 0.800049 0.899982 0.245279
564 1 1.00002 0.899992 0.245299
402 1 0.0999685 0.999961 0.245286
410 1 0.300024 1.00004 0.245308
418 1 0.500041 0.99996 0.245304
426 1 0.699959 1 0.245282
434 1 0.899957 0.999961 0.245287
407 2 0.0499871 0.0500264 0.269724
415 2 0.24996 0.0499877 0.269728
423 2 0.450017 0.0500295 0.269735
431 2 0.649988 0.0499911 0.269738
439 2 0.850027 0.0499838 0.269722
405 2 0.149998 0.149986 0.269706
603 1 0.100041 0.100035 0.294131
611 1 0.299953 0.100003 0.294151
413 2 0.35002 0.150013 0.26971
619 1 0.49995 0.0999512 0.294108
421 2 0.549965 0.150009 0.269703
429 2 0.750041 0.149977 0.269718
627 1 0.699955 0.0999525 0.294143
635 1 0.900041 0.100029 0.294142
437 2 0.950002 0.150002 0.269739
649 1 0.20001 0.200021 0.294116
657 1 0.40005 0.200036 0.294112
665 1 0.599988 0.200044 0.294111
673 1 0.800047 0.200032 0.294146
641 1 0.999982 0.200004 0.294149
447 2 0.0500085 0.249975 0.269721
643 1 0.100051 0.299999 0.294117
455 2 0.250043 0.249984 0.269702
651 1 0.299978 0.299996 0.294128
463 2 0.44998 0.249955 0.269727
659 1 0.499995 0.299979 0.294111
471 2 0.649957 0.249963 0.269706
667 1 0.70002 0.299997 0.294137
479 2 0.850007 0.250025 0.269702
675 1 0.900005 0.299953 0.294143
445 2 0.149993 0.350032 0.2697
453 2 0.349996 0.350025 0.269725
461 2 0.549991 0.350025 0.269698
469 2 0.75 0.35004 0.269707
477 2 0.949991 0.34996 0.26972
487 2 0.0499791 0.449983 0.269739
689 1 0.200005 0.399955 0.294106
495 2 0.249954 0.449976 0.269693
503 2 0.45003 0.450018 0.269693
697 1 0.400001 0.400008 0.294115
705 1 0.600035 0.399985 0.29415
511 2 0.650033 0.450047 0.269728
713 1 0.800019 0.400049 0.294123
519 2 0.850033 0.449994 0.269734
681 1 1.00002 0.400017 0.294153
683 1 0.100006 0.499958 0.294143
691 1 0.299977 0.499992 0.294126
699 1 0.49998 0.499988 0.294143
707 1 0.700019 0.499994 0.294129
715 1 0.900031 0.500001 0.294125
485 2 0.149977 0.550026 0.269732
729 1 0.19997 0.600029 0.29412
493 2 0.350016 0.550018 0.269723
737 1 0.4 0.59999 0.294107
501 2 0.55001 0.549964 0.269731
745 1 0.600002 0.600043 0.294138
509 2 0.750023 0.549979 0.269705
753 1 0.800033 0.600023 0.294134
721 1 1.00004 0.599998 0.294115
517 2 0.949982 0.550033 0.269733
527 2 0.0500281 0.649964 0.269734
535 2 0.249959 0.650018 0.269734
543 2 0.450048 0.650014 0.269718
551 2 0.650043 0.649983 0.269719
559 2 0.849986 0.649997 0.269698
525 2 0.14997 0.749994 0.269739
723 1 0.0999878 0.699999 0.29414
731 1 0.300047 0.699988 0.294118
533 2 0.350013 0.750047 0.269694
739 1 0.500007 0.700049 0.294138
541 2 0.549978 0.750005 0.269731
549 2 0.749984 0.749982 0.269718
747 1 0.699966 0.700019 0.294106
755 1 0.900003 0.69995 0.294137
557 2 0.949955 0.750044 0.269718
769 1 0.199987 0.799967 0.294127
777 1 0.400031 0.800036 0.294126
785 1 0.599994 0.800014 0.29413
793 1 0.800011 0.799999 0.29412
761 1 1.00004 0.800042 0.294153
567 2 0.0500114 0.850034 0.269724
763 1 0.100029 0.900035 0.294147
575 2 0.249991 0.84998 0.269703
771 1 0.30002 0.900043 0.294115
583 2 0.450048 0.849971 0.269693
779 1 0.500048 0.899993 0.294118
591 2 0.649993 0.849988 0.269716
787 1 0.700001 0.899957 0.29414
599 2 0.849976 0.85003 0.269708
795 1 0.899955 0.899954 0.294114
565 2 0.150037 0.950002 0.269731
609 1 0.199964 0.999995 0.294147
573 2 0.35002 0.950011 0.269726
617 1 0.399995 0.999949 0.294108
625 1 0.599999 1.00003 0.294119
581 2 0.549999 0.949979 0.269737
589 2 0.749974 0.949966 0.269705
633 1 0.799974 0.999961 0.294141
601 1 0.999983 1.00004 0.294141
597 2 0.950039 0.950046 0.269722
608 2 0.149968 0.0500449 0.318563
616 2 0.350004 0.0500028 0.318521
624 2 0.549969 0.049964 0.31856
632 2 0.750006 0.0499856 0.31854
640 2 0.950031 0.0499741 0.318564
606 2 0.0499775 0.149967 0.318558
612 1 0.200001 0.0999616 0.342973
614 2 0.250042 0.150031 0.318529
622 2 0.450028 0.150021 0.318564
620 1 0.399981 0.100014 0.342957
628 1 0.600022 0.0999537 0.342976
630 2 0.649954 0.149985 0.318521
636 1 0.800029 0.0999838 0.342948
638 2 0.849992 0.149976 0.318552
604 1 0.999988 0.0999973 0.342934
642 1 0.0999756 0.199988 0.342963
650 1 0.299956 0.199999 0.342974
658 1 0.499988 0.200022 0.342941
666 1 0.700019 0.200026 0.342964
674 1 0.900047 0.200002 0.342939
648 2 0.149961 0.249976 0.318568
652 1 0.200033 0.300016 0.342936
656 2 0.350016 0.249973 0.318552
660 1 0.399971 0.300019 0.342948
664 2 0.549961 0.250008 0.318567
668 1 0.599951 0.300035 0.342947
672 2 0.749993 0.249965 0.318555
676 1 0.799954 0.300036 0.34295
680 2 0.950032 0.250026 0.318547
644 1 1.00004 0.299998 0.342946
646 2 0.0499934 0.349994 0.318561
654 2 0.249964 0.349971 0.318521
662 2 0.44997 0.349981 0.318564
670 2 0.650012 0.349961 0.318536
678 2 0.85001 0.349997 0.318532
688 2 0.149962 0.450006 0.318559
682 1 0.100007 0.400028 0.342983
690 1 0.300018 0.400036 0.342966
696 2 0.350039 0.449996 0.318527
698 1 0.499989 0.399982 0.342974
704 2 0.550021 0.449958 0.318539
712 2 0.749963 0.449978 0.318533
706 1 0.699983 0.399999 0.342958
714 1 0.899988 0.399987 0.342951
720 2 0.949993 0.449984 0.318527
692 1 0.200014 0.500013 0.342975
700 1 0.400014 0.500039 0.342947
708 1 0.600034 0.500017 0.34298
716 1 0.80003 0.499974 0.342967
684 1 0.999957 0.500004 0.342963
686 2 0.0499589 0.549974 0.318563
722 1 0.099954 0.600004 0.342969
694 2 0.250033 0.549997 0.318539
730 1 0.299986 0.599961 0.342959
702 2 0.450029 0.550026 0.318527
738 1 0.499965 0.600029 0.342935
710 2 0.650006 0.549996 0.318542
746 1 0.700026 0.600044 0.342971
718 2 0.850006 0.549985 0.318533
754 1 0.899999 0.599955 0.342973
728 2 0.149984 0.64999 0.318554
736 2 0.350022 0.650028 0.318527
744 2 0.549968 0.650011 0.318533
752 2 0.749993 0.650025 0.318544
760 2 0.950009 0.650028 0.318534
726 2 0.0499847 0.750031 0.318533
732 1 0.200017 0.700006 0.342967
734 2 0.249963 0.749979 0.318565
742 2 0.449977 0.749965 0.318553
740 1 0.400031 0.700011 0.342953
748 1 0.600026 0.700015 0.342971
750 2 0.649958 0.749977 0.318551
756 1 0.799971 0.70002 0.342945
758 2 0.849989 0.749994 0.318539
724 1 0.999962 0.700005 0.342952
762 1 0.100031 0.799973 0.342982
770 1 0.300009 0.800002 0.342943
778 1 0.500036 0.799951 0.342939
786 1 0.699974 0.799971 0.342948
794 1 0.899951 0.799999 0.342959
768 2 0.150012 0.850028 0.318529
772 1 0.199951 0.900024 0.342965
776 2 0.350018 0.850018 0.318555
780 1 0.399982 0.899967 0.342981
784 2 0.550032 0.850022 0.318567
788 1 0.599962 0.90005 0.342979
792 2 0.750007 0.849981 0.31855
796 1 0.800018 0.900044 0.342936
800 2 0.949963 0.850031 0.318545
764 1 0.999987 0.899992 0.342971
766 2 0.0500351 0.950003 0.318564
602 1 0.0999664 0.999983 0.342937
774 2 0.249979 0.949991 0.318567
610 1 0.300004 1.00001 0.342945
782 2 0.450045 0.950003 0.318546
618 1 0.500046 1.00003 0.342942
790 2 0.649953 0.949967 0.318552
626 1 0.700005 0.999986 0.342958
798 2 0.850007 0.949972 0.318551
634 1 0.899968 1.00004 0.342979
607 2 0.0500287 0.0499775 0.367368
615 2 0.249998 0.0499917 0.367383
623 2 0.449975 0.0499823 0.367369
631 2 0.650018 0.0500465 0.367386
639 2 0.849982 0.0500473 0.367393
605 2 0.149955 0.149969 0.367356
613 2 0.349976 0.150002 0.367372
621 2 0.549957 0.150009 0.367367
629 2 0.749987 0.14997 0.367385
637 2 0.94996 0.150035 0.367375
647 2 0.0499906 0.249979 0.367357
655 2 0.249999 0.250004 0.367371
663 2 0.450028 0.249956 0.367353
671 2 0.650006 0.250007 0.367392
679 2 0.850005 0.249983 0.367356
645 2 0.150011 0.349981 0.367365
653 2 0.349973 0.350027 0.367377
661 2 0.550027 0.350047 0.367353
669 2 0.749983 0.349961 0.367389
677 2 0.950005 0.350024 0.367364
687 2 0.0499834 0.450036 0.367357
695 2 0.250041 0.449986 0.367376
703 2 0.450027 0.450018 0.367394
711 2 0.649975 0.450041 0.367377
719 2 0.850026 0.450027 0.367396
685 2 0.150041 0.549975 0.367353
693 2 0.350019 0.549964 0.367357
701 2 0.549987 0.550004 0.367393
709 2 0.74998 0.549981 0.367376
717 2 0.950005 0.55001 0.367383
727 2 0.0499698 0.650046 0.367364
735 2 0.249995 0.650005 0.367356
743 2 0.450035 0.650037 0.367375
751 2 0.649965 0.649999 0.367396
759 2 0.849991 0.649997 0.367358
725 2 0.150005 0.749993 0.367379
733 2 0.350024 0.749977 0.367393
741 2 0.550011 0.750015 0.367395
749 2 0.749961 0.74999 0.367384
757 2 0.949964 0.750006 0.367379
767 2 0.0499883 0.849958 0.36736
775 2 0.249974 0.850045 0.367362
783 2 0.450026 0.849965 0.367366
791 2 0.650019 0.850026 0.367382
799 2 0.849963 0.850033 0.367365
765 2 0.150028 0.949966 0.36737
773 2 0.349956 0.949965 0.367362
781 2 0.550039 0.950011 0.367362
789 2 0.749987 0.949969 0.367361
797 2 0.950032 0.950034 0.367389
808 2 0.149992 0.0499849 0.416207
816 2 0.34998 0.0500065 0.416185
824 2 0.549988 0.0499685 0.41619
832 2 0.749958 0.0499685 0.416196
840 2 0.950008 0.0500016 0.416184
806 2 0.0499879 0.15 0.416208
803 1 0.100016 0.100029 0.391783
811 1 0.300042 0.0999547 0.391763
814 2 0.249965 0.149961 0.416182
822 2 0.449963 0.149955 0.416214
819 1 0.499966 0.0999821 0.391782
830 2 0.649965 0.149985 0.416191
827 1 0.700029 0.100021 0.391774
835 1 0.899992 0.0999933 0.391778
838 2 0.849955 0.150007 0.416181
849 1 0.199957 0.199967 0.391811
857 1 0.399996 0.200022 0.391775
865 1 0.599994 0.200017 0.39178
873 1 0.80002 0.199989 0.391769
841 1 0.999999 0.199998 0.391803
843 1 0.0999775 0.300046 0.391779
848 2 0.150005 0.25004 0.416212
851 1 0.300021 0.299977 0.391811
856 2 0.349967 0.250018 0.416205
859 1 0.500043 0.299951 0.391805
864 2 0.549978 0.249972 0.416181
867 1 0.699955 0.299975 0.391788
872 2 0.749996 0.249975 0.41618
875 1 0.899981 0.300037 0.391806
880 2 0.950047 0.250006 0.416203
846 2 0.0500395 0.350046 0.416179
854 2 0.250004 0.350031 0.416198
862 2 0.44996 0.349959 0.41622
870 2 0.649999 0.349955 0.4162
878 2 0.849998 0.350018 0.416211
888 2 0.150017 0.450043 0.416209
889 1 0.199968 0.400038 0.391767
896 2 0.349977 0.449986 0.416215
897 1 0.399962 0.399974 0.391764
905 1 0.60003 0.400043 0.391771
904 2 0.54997 0.450033 0.416202
912 2 0.750037 0.449988 0.416217
913 1 0.800038 0.39997 0.391785
881 1 1.00004 0.4 0.391777
920 2 0.949992 0.450041 0.4162
883 1 0.099979 0.499949 0.391807
891 1 0.299971 0.500037 0.391803
899 1 0.500042 0.499987 0.391807
907 1 0.700004 0.499979 0.391802
915 1 0.899958 0.49999 0.391769
886 2 0.0499888 0.550023 0.416186
929 1 0.200041 0.599993 0.391782
894 2 0.250028 0.549991 0.41618
937 1 0.400002 0.599953 0.391792
902 2 0.450045 0.549975 0.416211
945 1 0.599981 0.599981 0.391813
910 2 0.649999 0.550034 0.416178
953 1 0.800028 0.599966 0.391776
918 2 0.850013 0.549992 0.416209
921 1 1.00002 0.600004 0.391812
928 2 0.149996 0.650023 0.416181
936 2 0.349999 0.649956 0.416189
944 2 0.550008 0.650028 0.416219
952 2 0.749978 0.650011 0.416188
960 2 0.949999 0.649963 0.416186
926 2 0.0500203 0.75002 0.416188
923 1 0.0999542 0.700016 0.391766
931 1 0.299997 0.700028 0.391807
934 2 0.250033 0.750015 0.416205
942 2 0.450041 0.750039 0.416183
939 1 0.499971 0.700013 0.39177
950 2 0.649964 0.750036 0.416192
947 1 0.700017 0.699967 0.39181
955 1 0.899977 0.699973 0.391798
958 2 0.849956 0.750019 0.416213
969 1 0.199976 0.800045 0.391796
977 1 0.399973 0.800001 0.391806
985 1 0.60002 0.799975 0.391782
993 1 0.799975 0.79997 0.391795
961 1 1 0.799986 0.391798
963 1 0.0999589 0.899969 0.391809
968 2 0.15002 0.85004 0.416192
971 1 0.300024 0.899983 0.391802
976 2 0.349997 0.850018 0.416223
979 1 0.500035 0.899962 0.391787
984 2 0.549975 0.850039 0.416207
987 1 0.699987 0.899969 0.391785
992 2 0.749992 0.850016 0.416208
995 1 0.899983 0.899966 0.391767
1000 2 0.949985 0.850036 0.416209
966 2 0.0500272 0.950017 0.416202
809 1 0.199952 0.999958 0.391764
974 2 0.250018 0.950023 0.416205
817 1 0.399969 1 0.391797
982 2 0.450006 0.950033 0.416222
825 1 0.599995 0.999977 0.391799
990 2 0.650027 0.950046 0.41618
833 1 0.800024 1.00003 0.391773
998 2 0.850028 0.949987 0.41622
801 1 0.999951 0.999998 0.391767
812 1 0.199959 0.100023 0.440614
820 1 0.400025 0.0999798 0.440628
828 1 0.600025 0.100001 0.440623
836 1 0.79995 0.100004 0.440591
804 1 1.00002 0.0999573 0.440622
842 1 0.100035 0.200023 0.440612
850 1 0.299962 0.199994 0.440599
858 1 0.500041 0.200046 0.440635
866 1 0.699963 0.200041 0.440603
874 1 0.900043 0.199959 0.440609
852 1 0.200003 0.300001 0.440611
860 1 0.39997 0.299975 0.440628
868 1 0.599979 0.300023 0.440627
876 1 0.800043 0.299982 0.440606
844 1 0.999971 0.29996 0.440615
882 1 0.0999972 0.400014 0.440639
890 1 0.300005 0.400004 0.440626
898 1 0.500009 0.399974 0.440631
906 1 0.699954 0.40001 0.440605
914 1 0.899957 0.399963 0.440622
892 1 0.200007 0.500035 0.440609
900 1 0.399957 0.500048 0.440638
908 1 0.600027 0.499957 0.440605
916 1 0.800042 0.499993 0.440615
884 1 1.00001 0.499951 0.440628
922 1 0.0999685 0.600044 0.440619
930 1 0.300006 0.599957 0.440625
938 1 0.499959 0.59995 0.440625
946 1 0.700002 0.600012 0.440635
954 1 0.900038 0.599961 0.44061
932 1 0.200023 0.699983 0.440619
940 1 0.400008 0.700019 0.440633
948 1 0.600033 0.700046 0.440632
956 1 0.799984 0.700008 0.440599
924 1 0.999973 0.699983 0.440637
962 1 0.099955 0.79995 0.440613
970 1 0.300011 0.800035 0.440624
978 1 0.499982 0.79998 0.440636
986 1 0.699986 0.800008 0.440597
994 1 0.89996 0.800028 0.440615
972 1 0.199987 0.900039 0.440598
980 1 0.399984 0.899975 0.440601
988 1 0.600008 0.900048 0.440604
996 1 0.800023 0.899982 0.440601
964 1 1 0.9 0.440625
802 1 0.100017 1.00004 0.440633
810 1 0.300012 0.999956 0.440614
818 1 0.500009 1.00003 0.440635
826 1 0.700013 1.00001 0.440608
834 1 0.899966 1.00002 0.440622
807 2 0.0499974 0.0499548 0.465029
815 2 0.250012 0.0499572 0.465037
823 2 0.449966 0.0499921 0.465032
831 2 0.649975 0.0500349 0.465048
839 2 0.849996 0.0500125 0.465017
805 2 0.150018 0.14997 0.465038
1003 1 0.0999765 0.099971 0.489449
1011 1 0.300035 0.100022 0.489449
813 2 0.349985 0.150017 0.465035
1019 1 0.499984 0.100005 0.489468
821 2 0.549984 0.149978 0.465007
829 2 0.74996 0.14998 0.465039
1027 1 0.699985 0.100038 0.489451
1035 1 0.900029 0.099994 0.489468
837 2 0.949992 0.150037 0.465041
1049 1 0.199965 0.200043 0.489456
1057 1 0.400004 0.199961 0.489453
1065 1 0.600034 0.200015 0.489447
1073 1 0.799989 0.199972 0.489424
1041 1 0.999976 0.200034 0.489423
847 2 0.0499612 0.249995 0.465049
1043 1 0.100034 0.300035 0.489424
855 2 0.250036 0.249992 0.46505
1051 1 0.300035 0.300029 0.48944