ITEM: TIMESTEP
200
ITEM: NUMBER OF ATOMS
1250
ITEM: BOX BOUNDS pp pp pp
0.0000000000000000e+00 3.2500000000000000e+01
0.0000000000000000e+00 3.2500000000000000e+01
-1.3000000000000000e+01 5.2000000000000000e+01
ITEM: ATOMS id type xs ys zs
1 1 0 0 0
8 2 0.15 0.05 0.025
9 1 0.2 0 0
16 2 0.35 0.05 0.025
17 1 0.4 0 0
24 2 0.55 0.05 0.025
25 1 0.6 0 0
32 2 0.75 0.05 0.025
33 1 0.8 0 0
40 2 0.95 0.05 0.025
6 2 0.05 0.15 0.025
3 1 0.1 0.1 0
11 1 0.3 0.1 0
14 2 0.25 0.15 0.025
22 2 0.45 0.15 0.025
19 1 0.5 0.1 0
30 2 0.65 0.15 0.025
27 1 0.7 0.1 0
35 1 0.9 0.1 0
38 2 0.85 0.15 0.025
41 1 0 0.2 0
49 1 0.2 0.2 0
57 1 0.4 0.2 0
65 1 0.6 0.2 0
73 1 0.8 0.2 0
43 1 0.1 0.3 0
48 2 0.15 0.25 0.025
51 1 0.3 0.3 0
56 2 0.35 0.25 0.025
59 1 0.5 0.3 0
64 2 0.55 0.25 0.025
67 1 0.7 0.3 0
72 2 0.75 0.25 0.025
75 1 0.9 0.3 0
80 2 0.95 0.25 0.025
46 2 0.05 0.35 0.025
81 1 0 0.4 0
89 1 0.2 0.4 0
54 2 0.25 0.35 0.025
97 1 0.4 0.4 0
62 2 0.45 0.35 0.025
70 2 0.65 0.35 0.025
105 1 0.6 0.4 0
113 1 0.8 0.4 0
78 2 0.85 0.35 0.025
88 2 0.15 0.45 0.025
96 2 0.35 0.45 0.025
104 2 0.55 0.45 0.025
112 2 0.75 0.45 0.025
120 2 0.95 0.45 0.025
86 2 0.05 0.55 0.025
83 1 0.1 0.5 0
91 1 0.3 0.5 0
94 2 0.25 0.55 0.025
102 2 0.45 0.55 0.025
99 1 0.5 0.5 0
110 2 0.65 0.55 0.025
107 1 0.7 0.5 0
115 1 0.9 0.5 0
118 2 0.85 0.55 0.025
121 1 0 0.6 0
128 2 0.15 0.65 0.025
129 1 0.2 0.6 0
136 2 0.35 0.65 0.025
137 1 0.4 0.6 0
144 2 0.55 0.65 0.025
145 1 0.6 0.6 0
152 2 0.75 0.65 0.025
153 1 0.8 0.6 0
160 2 0.95 0.65 0.025
123 1 0.1 0.7 0
131 1 0.3 0.7 0
139 1 0.5 0.7 0
147 1 0.7 0.7 0
155 1 0.9 0.7 0
126 2 0.05 0.75 0.025
161 1 0 0.8 0
169 1 0.2 0.8 0
134 2 0.25 0.75 0.025
177 1 0.4 0.8 0
142 2 0.45 0.75 0.025
150 2 0.65 0.75 0.025
185 1 0.6 0.8 0
193 1 0.8 0.8 0
158 2 0.85 0.75 0.025
163 1 0.1 0.9 0
168 2 0.15 0.85 0.025
171 1 0.3 0.9 0
176 2 0.35 0.85 0.025
179 1 0.5 0.9 0
184 2 0.55 0.85 0.025
187 1 0.7 0.9 0
192 2 0.75 0.85 0.025
195 1 0.9 0.9 0
200 2 0.95 0.85 0.025
166 2 0.05 0.95 0.025
174 2 0.25 0.95 0.025
182 2 0.45 0.95 0.025
190 2 0.65 0.95 0.025
198 2 0.85 0.95 0.025
7 2 0.0500081 0.0500678 0.0779104
2 1 0.1 0 0.05
15 2 0.249953 0.0500029 0.0779365
10 1 0.3 0 0.05
23 2 0.450041 0.050022 0.0779421
18 1 0.5 0 0.05
31 2 0.650033 0.0500038 0.077909
26 1 0.7 0 0.05
34 1 0.9 0 0.05
39 2 0.850052 0.0500151 0.0779185
4 1 0 0.1 0.05
5 2 0.149945 0.150016 0.0778824
12 1 0.2 0.1 0.05
13 2 0.349966 0.15003 0.0779435
20 1 0.4 0.1 0.05
21 2 0.550019 0.150037 0.0778819
28 1 0.6 0.1 0.05
29 2 0.750068 0.149952 0.07789
36 1 0.8 0.1 0.05
37 2 0.950027 0.149926 0.0779441
42 1 0.1 0.2 0.05
50 1 0.3 0.2 0.05
63 2 0.449984 0.249963 0.0779213
58 1 0.5 0.2 0.05
71 2 0.65007 0.249919 0.0779012
66 1 0.7 0.2 0.05
74 1 0.9 0.2 0.05
79 2 0.849944 0.25006 0.0778935
44 1 0 0.3 0.05
47 2 0.0499381 0.250055 0.0778672
52 1 0.2 0.3 0.05
55 2 0.24998 0.250063 0.0779472
60 1 0.4 0.3 0.05
68 1 0.6 0.3 0.05
76 1 0.8 0.3 0.05
45 2 0.149919 0.350069 0.0778822
82 1 0.1 0.4 0.05
90 1 0.3 0.4 0.05
53 2 0.349967 0.349997 0.077884
61 2 0.550077 0.349996 0.0779066
98 1 0.5 0.4 0.05
106 1 0.7 0.4 0.05
69 2 0.750018 0.349919 0.0779009
114 1 0.9 0.4 0.05
77 2 0.949997 0.350047 0.0779343
87 2 0.0499396 0.449943 0.077899
95 2 0.250058 0.450035 0.0779275
103 2 0.449958 0.449992 0.0778731
111 2 0.650028 0.449916 0.0779074
119 2 0.850021 0.449911 0.0778839
84 1 0 0.5 0.05
85 2 0.149921 0.549975 0.0779077
92 1 0.2 0.5 0.05
93 2 0.349978 0.550054 0.0779182
100 1 0.4 0.5 0.05
101 2 0.550025 0.550082 0.0779429
108 1 0.6 0.5 0.05
109 2 0.750068 0.549934 0.0779402
116 1 0.8 0.5 0.05
117 2 0.950009 0.550079 0.0778878
127 2 0.0500834 0.65006 0.0778756
122 1 0.1 0.6 0.05
130 1 0.3 0.6 0.05
135 2 0.249958 0.64998 0.0779246
143 2 0.45001 0.650064 0.0778825
138 1 0.5 0.6 0.05
151 2 0.649936 0.650011 0.0778742
146 1 0.7 0.6 0.05
154 1 0.9 0.6 0.05
159 2 0.85002 0.650045 0.0779326
124 1 0 0.7 0.05
132 1 0.2 0.7 0.05
140 1 0.4 0.7 0.05
133 2 0.35001 0.749948 0.0778911
148 1 0.6 0.7 0.05
156 1 0.8 0.7 0.05
125 2 0.150087 0.750008 0.0779426
162 1 0.1 0.8 0.05
170 1 0.3 0.8 0.05
141 2 0.549947 0.750049 0.0779374
178 1 0.5 0.8 0.05
186 1 0.7 0.8 0.05
149 2 0.749981 0.750016 0.0779008
194 1 0.9 0.8 0.05
157 2 0.950006 0.750056 0.0779049
164 1 0 0.9 0.05
167 2 0.0499978 0.850084 0.07788
172 1 0.2 0.9 0.05
175 2 0.250053 0.849989 0.0779338
180 1 0.4 0.9 0.05
183 2 0.450057 0.850076 0.077896
188 1 0.6 0.9 0.05
191 2 0.650048 0.849918 0.0779388
196 1 0.8 0.9 0.05
199 2 0.850076 0.849997 0.0779336
165 2 0.149917 0.949968 0.0779435
173 2 0.349995 0.949984 0.0779313
181 2 0.54993 0.949975 0.0779
189 2 0.75006 0.950014 0.0778834
197 2 0.949937 0.949964 0.0778876
217 1 0.399933 7.73096e-05 0.105763
225 1 0.599922 -6.74453e-05 0.105738
233 1 0.800069 -3.27456e-05 0.105703
203 1 0.100071 0.100014 0.105712
211 1 0.300015 0.10003 0.10575
219 1 0.500051 0.100084 0.105704
227 1 0.700023 0.100056 0.105711
235 1 0.900051 0.100004 0.10571
241 1 2.97992e-06 0.20005 0.105748
249 1 0.200081 0.199923 0.105737
257 1 0.400034 0.20001 0.105778
265 1 0.599969 0.200065 0.105757
273 1 0.799945 0.200061 0.105714
243 1 0.0999592 0.299917 0.105772
251 1 0.299947 0.29997 0.105703
259 1 0.500007 0.299925 0.105726
267 1 0.700071 0.299978 0.105751
275 1 0.900041 0.300046 0.105764
289 1 0.200009 0.399983 0.10576
297 1 0.400045 0.400012 0.105706
305 1 0.600028 0.399909 0.105792
313 1 0.800031 0.399989 0.105782
281 1 1 0.399918 0.105721
283 1 0.100006 0.50007 0.105707
299 1 0.500076 0.500065 0.105781
307 1 0.700043 0.500056 0.105735
291 1 0.299911 0.499996 0.105757
315 1 0.899957 0.499916 0.10576
329 1 0.199945 0.599955 0.105758
337 1 0.40006 0.600044 0.105788
345 1 0.600089 0.599915 0.105747
353 1 0.799921 0.599976 0.10573
321 1 0.999963 0.600085 0.105758
323 1 0.100005 0.699998 0.105714
331 1 0.300041 0.699979 0.105703
339 1 0.499929 0.700091 0.105782
347 1 0.700073 0.699961 0.105786
355 1 0.899974 0.700003 0.105762
369 1 0.200092 0.800083 0.105738
377 1 0.399939 0.800051 0.105749
385 1 0.599967 0.800042 0.105782
393 1 0.799941 0.799988 0.105765
361 1 1.00004 0.800017 0.10575
363 1 0.0999653 0.899915 0.10572
371 1 0.300009 0.899996 0.105792
379 1 0.499994 0.899917 0.105765
387 1 0.700062 0.900007 0.105726
395 1 0.899939 0.899942 0.105744
201 1 2.58927e-05 1.00004 0.105769
209 1 0.200004 0.999939 0.105739
208 2 0.149925 0.0500534 0.133558
210 1 0.299929 6.38925e-05 0.16145
216 2 0.350008 0.0500703 0.13357
224 2 0.549928 0.0500559 0.133636
232 2 0.750023 0.0500505 0.133599
234 1 0.900081 -8.56344e-05 0.161412
240 2 0.950008 0.0500574 0.133569
204 1 -6.58895e-05 0.100002 0.161436
206 2 0.0500541 0.150023 0.133574
212 1 0.199975 0.10005 0.16148
214 2 0.250002 0.150052 0.133593
220 1 0.399975 0.0999148 0.161401
222 2 0.449967 0.149962 0.133557
228 1 0.599955 0.100028 0.161443
230 2 0.650032 0.149981 0.133565
236 1 0.799965 0.0999727 0.16142
238 2 0.849927 0.149965 0.133635
242 1 0.100086 0.199973 0.161446
250 1 0.300033 0.199979 0.161483
256 2 0.350023 0.24999 0.133591
258 1 0.499938 0.200001 0.161443
266 1 0.700019 0.200015 0.161396
274 1 0.899909 0.199964 0.161456
248 2 0.149947 0.250056 0.133568
252 1 0.200006 0.300079 0.161422
260 1 0.400085 0.299919 0.161479
264 2 0.549998 0.250002 0.133593
268 1 0.599985 0.300066 0.16145
272 2 0.750025 0.249923 0.133589
276 1 0.800015 0.30005 0.161458
244 1 0.999994 0.299959 0.161406
280 2 0.950001 0.249931 0.133565
246 2 0.0500754 0.349941 0.13357
282 1 0.100044 0.399929 0.161471
254 2 0.249952 0.350033 0.133566
290 1 0.299953 0.39991 0.161459
262 2 0.449954 0.350011 0.133628
298 1 0.500018 0.399957 0.161472
270 2 0.650048 0.350067 0.133603
306 1 0.700013 0.399918 0.161428
278 2 0.849974 0.350075 0.133568
314 1 0.899953 0.399974 0.161444
284 1 -1.18427e-05 0.499966 0.16143
288 2 0.15006 0.449952 0.133623
292 1 0.200069 0.499912 0.16142
296 2 0.34999 0.45 0.133636
304 2 0.55 0.449991 0.133583
308 1 0.600027 0.499966 0.16143
312 2 0.750052 0.450005 0.133578
320 2 0.949963 0.450052 0.133616
286 2 0.0499946 0.549953 0.133559
294 2 0.249929 0.549985 0.133554
300 1 0.400038 0.500086 0.161432
302 2 0.450048 0.550063 0.13362
310 2 0.649965 0.550014 0.133569
316 1 0.799982 0.500047 0.161414
318 2 0.849969 0.550037 0.133551
322 1 0.100058 0.600023 0.16148
328 2 0.150018 0.650055 0.133583
330 1 0.300032 0.600084 0.161436
336 2 0.349973 0.650042 0.133636
338 1 0.500054 0.599957 0.161401
344 2 0.549978 0.649929 0.133578
346 1 0.70003 0.600078 0.161415
352 2 0.749947 0.649971 0.133583
354 1 0.89992 0.599905 0.16148
360 2 0.94992 0.650037 0.133578
332 1 0.200049 0.700019 0.161452
340 1 0.399938 0.699922 0.161454
348 1 0.600002 0.699931 0.161448
356 1 0.800064 0.700036 0.161483
358 2 0.850076 0.750023 0.133562
324 1 1.00009 0.699946 0.161432
326 2 0.0499251 0.749964 0.13356
362 1 0.100032 0.800047 0.161448
334 2 0.250051 0.750055 0.133609
370 1 0.299975 0.799977 0.161456
342 2 0.450052 0.75003 0.133638
378 1 0.50003 0.800021 0.161481
350 2 0.650079 0.749995 0.133629
386 1 0.70009 0.799984 0.161475
394 1 0.899949 0.799924 0.161449
364 1 5.35537e-05 0.899992 0.161425
368 2 0.150017 0.849977 0.133565
372 1 0.199921 0.899999 0.161477
376 2 0.349939 0.850038 0.13362
380 1 0.40009 0.899989 0.161449
384 2 0.550088 0.850085 0.133572
388 1 0.600091 0.900006 0.161437
392 2 0.75002 0.850066 0.133633
396 1 0.800033 0.899935 0.161479
400 2 0.950059 0.849951 0.133629
366 2 0.0500048 0.950071 0.133579
202 1 0.100017 1.00002 0.161468
374 2 0.249927 0.949931 0.133586
382 2 0.450015 0.950079 0.133555
218 1 0.499954 1.00001 0.16143
390 2 0.649919 0.949983 0.133578
226 1 0.699985 0.999937 0.161411
398 2 0.850056 0.950042 0.133584
207 2 0.0500269 0.0499909 0.189257
215 2 0.250032 0.0499448 0.189259
223 2 0.450077 0.0499228 0.189266
231 2 0.649976 0.0500295 0.189297
239 2 0.850005 0.0499379 0.189242
205 2 0.150057 0.150019 0.189291
213 2 0.350041 0.149976 0.189315
221 2 0.549914 0.15003 0.189309
229 2 0.750002 0.149951 0.189262
237 2 0.949942 0.149927 0.189301
255 2 0.249983 0.249945 0.189306
263 2 0.449954 0.24999 0.189266
279 2 0.849932 0.250014 0.189255
247 2 0.0500692 0.250023 0.1893
271 2 0.650078 0.249936 0.189294
245 2 0.149955 0.350067 0.189254
253 2 0.350072 0.349945 0.189318
261 2 0.550007 0.349962 0.189268
269 2 0.750029 0.350015 0.189246
277 2 0.950017 0.349999 0.189275
287 2 0.0500068 0.449998 0.189289
295 2 0.249923 0.450082 0.189322
303 2 0.450042 0.450012 0.189276
311 2 0.649944 0.449994 0.189262
319 2 0.849968 0.450007 0.189305
285 2 0.149928 0.549986 0.189325
293 2 0.350086 0.550076 0.189268
301 2 0.54999 0.55 0.189307
309 2 0.749983 0.549946 0.189327
317 2 0.950085 0.549934 0.189305
327 2 0.0499872 0.650001 0.189245
335 2 0.250047 0.649928 0.189324
343 2 0.450045 0.649951 0.189243
351 2 0.649922 0.650045 0.189304
359 2 0.850039 0.649943 0.189283
333 2 0.35003 0.749915 0.18928
349 2 0.750044 0.750034 0.189324
357 2 0.950044 0.749937 0.189247
325 2 0.15003 0.750041 0.189257
341 2 0.549998 0.749938 0.189302
367 2 0.0500541 0.849926 0.189264
375 2 0.249938 0.849944 0.189255
383 2 0.449961 0.849996 0.189281
391 2 0.650084 0.850022 0.189312
399 2 0.850078 0.849929 0.189331
365 2 0.150019 0.949981 0.189267
373 2 0.349942 0.950036 0.189286
381 2 0.549976 0.949953 0.18926
389 2 0.749925 0.950047 0.189315
397 2 0.949926 0.949921 0.189297
401 1 -5.07103e-05 -1.80037e-05 0.217155
408 2 0.150006 0.0500484 0.245012
416 2 0.349934 0.050019 0.245
424 2 0.550066 0.0499248 0.244978
432 2 0.75003 0.050067 0.244968
433 1 0.799922 4.88799e-05 0.217107
440 2 0.949938 0.0499201 0.245015
406 2 0.0499936 0.14995 0.244975
403 1 0.100006 0.10003 0.217174
414 2 0.249965 0.150075 0.244991
411 1 0.29991 0.0999603 0.21717
422 2 0.449933 0.14996 0.244964
419 1 0.500034 0.0999913 0.217145
430 2 0.649947 0.150084 0.244955
427 1 0.699913 0.100063 0.21711
435 1 0.899947 0.099948 0.217132
438 2 0.850076 0.150011 0.245013
449 1 0.199991 0.199988 0.217168
457 1 0.399985 0.200088 0.217178
465 1 0.59991 0.200076 0.217171
473 1 0.799988 0.200044 0.217103
472 2 0.750046 0.250005 0.244951
441 1 0.999932 0.199915 0.217117
480 2 0.95008 0.250076 0.244963
443 1 0.0999527 0.300036 0.217147
448 2 0.150023 0.24997 0.244937
451 1 0.300009 0.299914 0.217141
456 2 0.349988 0.249981 0.245016
459 1 0.499993 0.300004 0.217097
464 2 0.549999 0.249997 0.24499
467 1 0.699987 0.299921 0.217153
475 1 0.899987 0.299929 0.217147
446 2 0.0500494 0.349924 0.244951
489 1 0.199912 0.399944 0.217168
454 2 0.249951 0.349981 0.244947
497 1 0.399978 0.400074 0.217174
462 2 0.449983 0.350061 0.244992
505 1 0.600006 0.400012 0.217144
470 2 0.650057 0.349923 0.244986
513 1 0.800011 0.399977 0.2171
478 2 0.849985 0.35006 0.244947
481 1 1.00008 0.399988 0.217109
483 1 0.0999399 0.500073 0.217167
488 2 0.149977 0.450048 0.245006
496 2 0.349958 0.449983 0.244984
499 1 0.50009 0.499946 0.217153
504 2 0.549929 0.449911 0.245012
507 1 0.699931 0.500047 0.217093
512 2 0.749999 0.449976 0.245004
520 2 0.950036 0.450018 0.244941
486 2 0.0500172 0.550008 0.244974
491 1 0.300013 0.499996 0.217129
494 2 0.249924 0.550066 0.244979
502 2 0.449945 0.550067 0.244987
510 2 0.649932 0.549932 0.245015
515 1 0.89994 0.499935 0.217148
518 2 0.849956 0.550025 0.245017
521 1 7.77688e-05 0.599928 0.217122
528 2 0.149995 0.64995 0.244971
529 1 0.200007 0.599969 0.217175
537 1 0.399933 0.599987 0.217108
536 2 0.350037 0.649985 0.244946
544 2 0.550081 0.650072 0.244963
545 1 0.600024 0.599953 0.217088
552 2 0.750063 0.650041 0.244942
553 1 0.799973 0.600032 0.217131
560 2 0.950065 0.649916 0.244984
526 2 0.049967 0.750013 0.244979
523 1 0.100089 0.70007 0.217117
531 1 0.299932 0.69991 0.217163
534 2 0.249935 0.749967 0.245006
539 1 0.500076 0.700083 0.217158
547 1 0.699979 0.700074 0.217114
555 1 0.900055 0.700055 0.217105
569 1 0.199973 0.799953 0.217165
577 1 0.400055 0.800012 0.21713
542 2 0.449928 0.750062 0.245019
585 1 0.600023 0.800081 0.217169
550 2 0.650077 0.749917 0.244972
593 1 0.800093 0.800065 0.217161
558 2 0.850028 0.749959 0.244948
561 1 1.00009 0.800012 0.217095
563 1 0.100087 0.899928 0.217136
568 2 0.150016 0.850071 0.244988
571 1 0.299919 0.899967 0.217119
576 2 0.349986 0.850003 0.245007
579 1 0.500013 0.899953 0.217101
584 2 0.550053 0.849964 0.244966
587 1 0.70001 0.900012 0.217174
592 2 0.750044 0.849988 0.244946
595 1 0.900074 0.900084 0.217173
600 2 0.949993 0.850056 0.244948
566 2 0.049993 0.949959 0.244992
409 1 0.199956 1.00001 0.217163
574 2 0.250085 0.949948 0.244955
417 1 0.399953 0.999947 0.217166
582 2 0.450017 0.949923 0.244947
425 1 0.599944 1.00004 0.217105
590 2 0.649998 0.949917 0.244977
598 2 0.849978 0.950035 0.244957
410 1 0.300042 6.68064e-05 0.272836
418 1 0.500074 -7.40256e-05 0.27283
426 1 0.699926 5.57579e-06 0.27279
412 1 0.200049 0.100037 0.27286
420 1 0.40006 0.100072 0.272827
428 1 0.600023 0.10009 0.272794
436 1 0.799967 0.100001 0.272843
404 1 0.99992 0.100037 0.272794
442 1 0.0999306 0.200078 0.27286
450 1 0.300034 0.200044 0.272826
458 1 0.499952 0.200027 0.272834
466 1 0.699996 0.199912 0.272819
474 1 0.899997 0.199954 0.272867
452 1 0.200027 0.300061 0.272865
460 1 0.400093 0.299966 0.272796
468 1 0.599923 0.300019 0.272845
476 1 0.800004 0.299928 0.272839
444 1 0.999975 0.300044 0.272805
482 1 0.100049 0.399967 0.272787
490 1 0.300021 0.400053 0.272809
498 1 0.49997 0.400071 0.272862
506 1 0.699919 0.399939 0.27282
514 1 0.899958 0.40004 0.272823
492 1 0.19997 0.49993 0.272787
508 1 0.599993 0.499907 0.272783
484 1 1.00532e-05 0.499952 0.272845
500 1 0.39997 0.499987 0.272822
516 1 0.800093 0.499924 0.272796
522 1 0.100037 0.600014 0.272861
530 1 0.299978 0.599982 0.272824
538 1 0.499953 0.599934 0.272844
546 1 0.700057 0.600006 0.272807
554 1 0.900046 0.600072 0.272833
524 1 1.89719e-05 0.700013 0.272835
532 1 0.199922 0.69992 0.272819
540 1 0.399989 0.699999 0.272829
548 1 0.599974 0.699949 0.272836
556 1 0.79991 0.70008 0.272838
562 1 0.100017 0.799957 0.272846
570 1 0.299959 0.799931 0.272827
578 1 0.500034 0.799964 0.272785
586 1 0.700035 0.800001 0.272815
594 1 0.900042 0.799938 0.272807
572 1 0.199974 0.899922 0.272826
580 1 0.400094 0.900037 0.272796
588 1 0.600024 0.900032 0.272829
596 1 0.800089 0.899968 0.272783
564 1 1.00004 0.899986 0.27282
402 1 0.0999427 0.999928 0.272798
434 1 0.89992 0.999927 0.272799
407 2 0.0499764 0.0500492 0.300684
609 1 0.199933 -8.25222e-06 0.32855
415 2 0.249926 0.0499768 0.300694
423 2 0.450029 0.0500517 0.300704
431 2 0.649977 0.0499844 0.30071
625 1 0.599997 5.4592e-05 0.328497
633 1 0.799953 -7.28773e-05 0.328536
439 2 0.850049 0.0499702 0.300683
601 1 0.999971 6.5234e-05 0.328538
405 2 0.149997 0.149975 0.300653
603 1 0.100075 0.100065 0.328519
611 1 0.299915 0.100006 0.328554
413 2 0.350036 0.150023 0.300661
619 1 0.49991 0.0999121 0.328477
421 2 0.549935 0.150016 0.300647
627 1 0.699919 0.0999135 0.32854
429 2 0.750075 0.149957 0.300677
635 1 0.900076 0.100052 0.328539
437 2 0.950005 0.150005 0.300713
447 2 0.0500137 0.249955 0.30068
641 1 -3.22819e-05 0.200006 0.328551
455 2 0.250079 0.249972 0.300645
649 1 0.200018 0.20004 0.328491
657 1 0.400091 0.200064 0.328485
665 1 0.599975 0.20008 0.328482
673 1 0.800087 0.200058 0.328546
643 1 0.100093 0.299999 0.328493
651 1 0.299962 0.299991 0.328512
463 2 0.449964 0.249918 0.300691
659 1 0.499991 0.299963 0.328483
471 2 0.649923 0.249933 0.300652
667 1 0.700036 0.299993 0.328528
479 2 0.850014 0.250045 0.300646
675 1 0.90001 0.299914 0.328539
445 2 0.149988 0.350059 0.300642
689 1 0.200008 0.39992 0.328472
453 2 0.349993 0.350046 0.300687
697 1 0.400004 0.400015 0.328489
461 2 0.549983 0.350046 0.300638
705 1 0.600065 0.399971 0.328552
469 2 0.75 0.350073 0.300655
713 1 0.800034 0.400089 0.328503
477 2 0.949984 0.349928 0.30068
681 1 1.00004 0.400029 0.328558
487 2 0.0499631 0.449968 0.300713
495 2 0.249915 0.449957 0.300628
691 1 0.299958 0.499984 0.328508
503 2 0.450054 0.450035 0.30063
699 1 0.499965 0.499976 0.328541
511 2 0.650059 0.450085 0.300692
519 2 0.850062 0.44999 0.300704
715 1 0.900056 0.500002 0.328507
485 2 0.149959 0.550045 0.3007
683 1 0.10001 0.499924 0.32854
493 2 0.350029 0.550033 0.300684
501 2 0.55002 0.549933 0.300699
509 2 0.750043 0.54996 0.30065
707 1 0.700036 0.499991 0.328515
517 2 0.949967 0.55006 0.300701
527 2 0.050052 0.649936 0.300703
721 1 7.71231e-05 0.599997 0.32849
535 2 0.249925 0.650033 0.300704
729 1 0.199944 0.600052 0.328498
737 1 0.400002 0.599983 0.328474
543 2 0.450088 0.650026 0.300674
551 2 0.650078 0.649968 0.300675
745 1 0.600004 0.600078 0.32853
753 1 0.80006 0.600043 0.328523
559 2 0.849973 0.649996 0.300637
723 1 0.099977 0.699997 0.328535
731 1 0.300086 0.69998 0.328495
541 2 0.54996 0.75001 0.300699
739 1 0.500012 0.700089 0.328531
549 2 0.749971 0.749969 0.300676
747 1 0.699938 0.700036 0.328473
755 1 0.900005 0.699909 0.328528
557 2 0.949918 0.750081 0.300675
761 1 6.44125e-05 0.800078 0.328559
525 2 0.149945 0.749987 0.300713
769 1 0.199977 0.799941 0.328512
533 2 0.350024 0.750087 0.300632
777 1 0.400058 0.800067 0.328509
785 1 0.599988 0.800026 0.328517
793 1 0.800019 0.799999 0.328499
567 2 0.0500222 0.850063 0.300686
763 1 0.100053 0.900065 0.328548
575 2 0.249984 0.849963 0.300647
771 1 0.300036 0.900079 0.32849
583 2 0.450089 0.849948 0.300628
779 1 0.500087 0.899985 0.328496
591 2 0.649988 0.849977 0.30067
787 1 0.700002 0.899921 0.328536
599 2 0.849956 0.850052 0.300655
795 1 0.899918 0.899917 0.328487
565 2 0.150068 0.950004 0.300698
573 2 0.350038 0.95002 0.300687
617 1 0.399992 0.999908 0.328477
581 2 0.55 0.949962 0.300709
589 2 0.749952 0.949937 0.30065
597 2 0.95007 0.950085 0.300681
608 2 0.149941 0.0500822 0.356396
616 2 0.350007 0.0500046 0.356319
624 2 0.549945 0.0499356 0.356391
632 2 0.750011 0.0499732 0.356354
640 2 0.950055 0.0499524 0.356398
606 2 0.0499592 0.14994 0.356387
614 2 0.250075 0.150056 0.356336
622 2 0.450052 0.150039 0.356398
630 2 0.649915 0.149973 0.356321
638 2 0.849987 0.149956 0.356376
648 2 0.149929 0.249956 0.356405
656 2 0.350029 0.249949 0.356377
680 2 0.950059 0.250047 0.356368
664 2 0.549928 0.250016 0.356403
672 2 0.749988 0.249936 0.356382
646 2 0.0499906 0.349989 0.356393
654 2 0.249936 0.349949 0.356319
662 2 0.449945 0.349965 0.356399
670 2 0.650023 0.349928 0.356347
678 2 0.850017 0.349995 0.356339
688 2 0.149933 0.450009 0.35639
696 2 0.350072 0.449994 0.356331
704 2 0.55004 0.449924 0.356354
712 2 0.749932 0.44996 0.356343
720 2 0.949988 0.449972 0.356331
686 2 0.0499246 0.549952 0.356396
694 2 0.250059 0.549994 0.356352
702 2 0.450053 0.550049 0.35633
710 2 0.650012 0.549993 0.356358
718 2 0.850011 0.549971 0.356343
728 2 0.14997 0.649983 0.35638
736 2 0.350041 0.65005 0.356332
744 2 0.549941 0.650021 0.356343
752 2 0.749986 0.650047 0.356361
760 2 0.950017 0.650048 0.356344
742 2 0.449958 0.749936 0.356379
750 2 0.649923 0.749958 0.356375
758 2 0.84998 0.749989 0.356353
726 2 0.0499724 0.750057 0.356344
734 2 0.249933 0.749961 0.3564
768 2 0.150022 0.850049 0.356335
776 2 0.350032 0.850033 0.356382
784 2 0.550059 0.850041 0.356404
792 2 0.750014 0.849964 0.356373
800 2 0.949932 0.850056 0.356364
766 2 0.0500623 0.950004 0.356399
774 2 0.249961 0.949984 0.356404
782 2 0.450083 0.950005 0.356365
790 2 0.649914 0.949939 0.356376
798 2 0.850014 0.94995 0.356374
607 2 0.0500521 0.0499595 0.412046
602 1 0.0999406 -3.13615e-05 0.38417
615 2 0.249996 0.0499831 0.412073
623 2 0.449953 0.0499666 0.412047
631 2 0.650034 0.0500835 0.41208
626 1 0.700008 -2.50365e-05 0.384208
639 2 0.849967 0.0500875 0.41209
605 2 0.149917 0.149944 0.412023
612 1 0.200003 0.0999313 0.384234
620 1 0.399964 0.100025 0.384205
613 2 0.349956 0.150004 0.412054
621 2 0.54992 0.150016 0.412044
628 1 0.600039 0.0999159 0.384241
629 2 0.749977 0.149944 0.412077
636 1 0.800051 0.0999702 0.38419
604 1 0.999977 0.0999949 0.384165
637 2 0.949927 0.150064 0.412058
642 1 0.099954 0.199977 0.384216
650 1 0.29992 0.199999 0.384237
658 1 0.49998 0.20004 0.384177
671 2 0.650009 0.250014 0.412088
666 1 0.700033 0.200046 0.384219
674 1 0.900085 0.200004 0.384172
679 2 0.85001 0.249969 0.412023
644 1 7.25674e-05 0.299997 0.384187
647 2 0.0499825 0.249962 0.412025
652 1 0.200061 0.300028 0.384168
655 2 0.249996 0.250007 0.412053
660 1 0.399946 0.300034 0.384191
663 2 0.450051 0.249921 0.412018
668 1 0.599911 0.300063 0.384187
676 1 0.799916 0.300065 0.384193
682 1 0.100012 0.40005 0.384254
645 2 0.150021 0.349965 0.412039
690 1 0.300032 0.400065 0.38422
653 2 0.34995 0.350048 0.412062
698 1 0.499979 0.399968 0.384236
661 2 0.550049 0.350085 0.412019
706 1 0.699967 0.399998 0.384208
669 2 0.749968 0.34993 0.412085
714 1 0.899977 0.399977 0.384194
677 2 0.950009 0.350043 0.412038
684 1 -8.07323e-05 0.500006 0.384217
687 2 0.0499691 0.450067 0.412026
695 2 0.250076 0.449976 0.412061
703 2 0.45005 0.450033 0.412094
711 2 0.649955 0.450075 0.412062
716 1 0.800054 0.499952 0.384223
719 2 0.850047 0.450048 0.412097
685 2 0.150073 0.549954 0.412019
692 1 0.200028 0.500022 0.384237
700 1 0.400028 0.500071 0.384187
693 2 0.350035 0.549934 0.412025
701 2 0.549976 0.550009 0.412091
708 1 0.600061 0.500032 0.384248
709 2 0.749964 0.549964 0.412061
717 2 0.95001 0.550018 0.412074
727 2 0.0499428 0.650085 0.412039
722 1 0.0999153 0.600006 0.384228
735 2 0.249993 0.650009 0.412024
730 1 0.299976 0.599931 0.384209
738 1 0.499937 0.600054 0.384167
743 2 0.450063 0.650066 0.412058
751 2 0.649935 0.649998 0.412098
746 1 0.700046 0.600081 0.384231
754 1 0.899999 0.599918 0.384234
759 2 0.849982 0.649996 0.412028
724 1 -6.94844e-05 0.700011 0.384197
725 2 0.15001 0.749987 0.412066
732 1 0.200029 0.70001 0.384225
740 1 0.400057 0.70002 0.384198
748 1 0.600046 0.700026 0.384231
756 1 0.799946 0.700038 0.384184
762 1 0.100058 0.799951 0.384249
770 1 0.300016 0.800004 0.38418
733 2 0.350044 0.749959 0.412091
778 1 0.500066 0.79991 0.384174
741 2 0.55002 0.750027 0.412094
786 1 0.699951 0.799946 0.384189
749 2 0.749927 0.749981 0.412075
794 1 0.899909 0.799999 0.384209
757 2 0.949934 0.750011 0.412065
767 2 0.0499783 0.849922 0.412032
772 1 0.19991 0.900044 0.384221
775 2 0.249953 0.850082 0.412034
780 1 0.399968 0.89994 0.384249
783 2 0.450049 0.849934 0.412043
788 1 0.599931 0.900091 0.384246
791 2 0.650033 0.850048 0.41207
796 1 0.800033 0.900081 0.384167
799 2 0.84993 0.85006 0.41204
764 1 0.999976 0.899986 0.384231
765 2 0.150048 0.949938 0.41205
610 1 0.300007 1.00002 0.384184
773 2 0.349919 0.949936 0.412034
618 1 0.500084 1.00005 0.384179
781 2 0.55007 0.950022 0.412036
789 2 0.749976 0.949943 0.412033
634 1 0.89994 1.00008 0.384246
797 2 0.950057 0.950061 0.412084
817 1 0.399942 -9.86574e-07 0.439917
825 1 0.599992 -4.09584e-05 0.439922
833 1 0.800044 6.06758e-05 0.439875
803 1 0.100028 0.100052 0.439894
811 1 0.300077 0.0999176 0.439856
819 1 0.499937 0.0999669 0.439891
827 1 0.700052 0.100039 0.439877
835 1 0.899985 0.099989 0.439884
841 1 -1.58824e-06 0.199996 0.43993
849 1 0.19992 0.199939 0.439943
857 1 0.399992 0.200039 0.439878
865 1 0.599989 0.20003 0.439887
873 1 0.800036 0.199981 0.439867
843 1 0.0999591 0.300083 0.439885
851 1 0.300037 0.299958 0.439944
859 1 0.500078 0.299912 0.439932
867 1 0.699918 0.299955 0.439902
875 1 0.899966 0.300068 0.439935
881 1 7.95453e-05 0.400002 0.439881
889 1 0.19994 0.400069 0.439864
897 1 0.399931 0.399953 0.439859
905 1 0.600054 0.40008 0.439871
913 1 0.800069 0.399945 0.439896
891 1 0.299949 0.500066 0.439929
899 1 0.500076 0.499976 0.439936
907 1 0.700008 0.499961 0.439928
883 1 0.0999621 0.499909 0.439936
915 1 0.899924 0.499983 0.439869
921 1 4.36715e-05 0.600008 0.439944
929 1 0.200075 0.599987 0.43989
937 1 0.400006 0.599913 0.43991
945 1 0.599963 0.599966 0.439947
953 1 0.800051 0.599938 0.439881
923 1 0.0999163 0.70003 0.439861
931 1 0.299994 0.700049 0.439937
939 1 0.499949 0.700023 0.43987
947 1 0.70003 0.699941 0.439943
955 1 0.899956 0.699951 0.439921
969 1 0.199956 0.800082 0.439917
977 1 0.39995 0.800004 0.439936
985 1 0.600035 0.799958 0.439891
993 1 0.799954 0.799946 0.439914
961 1 0.999999 0.799975 0.43992
963 1 0.0999244 0.899944 0.43994
971 1 0.300042 0.899969 0.439928
979 1 0.500063 0.899933 0.439899
987 1 0.699978 0.899944 0.439898
995 1 0.899968 0.899938 0.439863
801 1 -8.70168e-05 0.999997 0.439865
809 1 0.199913 0.999924 0.439859
808 2 0.149985 0.0499723 0.467756
810 1 0.300022 -8.03509e-05 0.495589
816 2 0.349963 0.0500118 0.467717
824 2 0.549978 0.049943 0.467725
832 2 0.749924 0.0499421 0.467736
840 2 0.950014 0.0500029 0.467715
804 1 3.93806e-05 0.099922 0.495604
806 2 0.0499786 0.149999 0.467759
812 1 0.199927 0.10004 0.495589
814 2 0.249937 0.149926 0.46771
820 1 0.400043 0.0999624 0.495615
822 2 0.449934 0.149919 0.467771
828 1 0.600044 0.100001 0.495605
830 2 0.649935 0.149973 0.467727
836 1 0.799907 0.100006 0.495547
838 2 0.849918 0.150013 0.467709
842 1 0.100064 0.200043 0.495587
850 1 0.299929 0.199987 0.495562
856 2 0.34994 0.250031 0.467753
858 1 0.500073 0.200083 0.495628
866 1 0.699933 0.200074 0.495569
874 1 0.900078 0.199925 0.495581
848 2 0.150008 0.250074 0.467766
852 1 0.200008 0.300002 0.495585
860 1 0.399944 0.299953 0.495615
864 2 0.549962 0.249948 0.46771
868 1 0.599961 0.30004 0.495612
872 2 0.749994 0.249954 0.467708
876 1 0.800078 0.299967 0.495575
844 1 0.99995 0.29993 0.49559
880 2 0.950085 0.25001 0.46775
846 2 0.0500718 0.350085 0.467706
882 1 0.0999954 0.400026 0.495635
854 2 0.250006 0.350058 0.46774
890 1 0.300009 0.400006 0.495611
862 2 0.449927 0.349923 0.46778
898 1 0.500016 0.399954 0.49562
870 2 0.649997 0.349919 0.467743
906 1 0.699915 0.400018 0.495572
878 2 0.849995 0.350033 0.467765
914 1 0.899924 0.399933 0.495604
884 1 2.39485e-05 0.499912 0.495615
888 2 0.150031 0.450078 0.467761
896 2 0.349958 0.449975 0.467772
900 1 0.399921 0.500088 0.495632
904 2 0.549945 0.450059 0.467749
908 1 0.600049 0.499924 0.495573
912 2 0.750068 0.449977 0.467774
916 1 0.800078 0.499987 0.495592
920 2 0.949985 0.450073 0.467743
886 2 0.0499797 0.55004 0.467719
892 1 0.200015 0.500064 0.495581
894 2 0.250051 0.549985 0.467708
902 2 0.450081 0.549953 0.467763
910 2 0.649999 0.550063 0.467705
918 2 0.850025 0.549985 0.46776
922 1 0.0999427 0.600082 0.495598
928 2 0.149992 0.650043 0.467708
930 1 0.300012 0.59992 0.495609
936 2 0.349998 0.649919 0.467724
938 1 0.499926 0.599911 0.49561
944 2 0.550013 0.650052 0.467779
946 1 0.700002 0.600021 0.495627
952 2 0.74996 0.650018 0.467722
954 1 0.900069 0.59993 0.495583
960 2 0.949998 0.649932 0.46772
932 1 0.200042 0.699969 0.495597
934 2 0.25006 0.75003 0.467753
940 1 0.400014 0.700036 0.495623
948 1 0.60006 0.700085 0.495622
956 1 0.79997 0.700014 0.495562
958 2 0.84992 0.750034 0.467768
924 1 0.999951 0.699971 0.49563
926 2 0.0500354 0.750034 0.467722
962 1 0.0999191 0.799909 0.495587
970 1 0.30002 0.800063 0.495608
942 2 0.450074 0.750071 0.467713
978 1 0.499969 0.799963 0.49563
950 2 0.649934 0.750066 0.46773
986 1 0.699976 0.800014 0.495559
994 1 0.899926 0.800051 0.49559
964 1 7.86437e-06 0.9 0.49561
968 2 0.150035 0.850072 0.467731
972 1 0.199977 0.900073 0.495561
976 2 0.349994 0.850032 0.467786
980 1 0.399973 0.899953 0.495566
984 2 0.549956 0.850069 0.467758
988 1 0.600017 0.90009 0.495571
992 2 0.749985 0.850029 0.467759
996 1 0.800042 0.899968 0.495565
1000 2 0.949972 0.850067 0.46776
966 2 0.050049 0.950034 0.467749
802 1 0.100031 1.00007 0.495624
974 2 0.250032 0.950042 0.467753
982 2 0.450012 0.950061 0.467783
818 1 0.500018 1.00005 0.495629
990 2 0.650051 0.950084 0.467707
826 1 0.700022 1.00002 0.495579
834 1 0.89994 1.00004 0.495605
998 2 0.850052 0.949977 0.46778
807 2 0.0499947 0.0499169 0.523438
815 2 0.250024 0.0499236 0.52345
823 2 0.449937 0.0499854 0.523443
831 2 0.649955 0.0500631 0.523472
839 2 0.849991 0.0500244 0.523415
805 2 0.150031 0.149946 0.523453
813 2 0.349973 0.150031 0.523447
821 2 0.549971 0.149959 0.523398
829 2 0.749925 0.149964 0.523455
837 2 0.949985 0.150065 0.523459
855 2 0.250067 0.249985 0.523476
847 2 0.0499302 0.249992 0.523472
863 2 0.450024 0.250055 0.523455
871 2 0.650066 0.249961 0.523452
879 2 0.849959 0.25003 0.523412
845 2 0.149999 0.349926 0.52345
853 2 0.350006 0.34997 0.523419
861 2 0.550089 0.350084 0.523435
869 2 0.749971 0.350012 0.523416