ITEM: TIMESTEP
100
ITEM: NUMBER OF ATOMS
1250
ITEM: BOX BOUNDS pp pp pp
0.0000000000000000e+00 3.4000000000000000e+01
0.0000000000000000e+00 3.4000000000000000e+01
-1.3600000000000000e+01 5.4399999999999999e+01
ITEM: ATOMS id type xs ys zs
1 1 0 0 0
8 2 0.15 0.05 0.025
9 1 0.2 0 0
16 2 0.35 0.05 0.025
17 1 0.4 0 0
24 2 0.55 0.05 0.025
25 1 0.6 0 0
32 2 0.75 0.05 0.025
33 1 0.8 0 0
40 2 0.95 0.05 0.025
6 2 0.05 0.15 0.025
3 1 0.1 0.1 0
11 1 0.3 0.1 0
14 2 0.25 0.15 0.025
22 2 0.45 0.15 0.025
19 1 0.5 0.1 0
30 2 0.65 0.15 0.025
27 1 0.7 0.1 0
35 1 0.9 0.1 0
38 2 0.85 0.15 0.025
41 1 0 0.2 0
49 1 0.2 0.2 0
57 1 0.4 0.2 0
65 1 0.6 0.2 0
73 1 0.8 0.2 0
43 1 0.1 0.3 0
48 2 0.15 0.25 0.025
51 1 0.3 0.3 0
56 2 0.35 0.25 0.025
59 1 0.5 0.3 0
64 2 0.55 0.25 0.025
67 1 0.7 0.3 0
72 2 0.75 0.25 0.025
75 1 0.9 0.3 0
80 2 0.95 0.25 0.025
46 2 0.05 0.35 0.025
54 2 0.25 0.35 0.025
62 2 0.45 0.35 0.025
70 2 0.65 0.35 0.025
78 2 0.85 0.35 0.025
81 1 0 0.4 0
88 2 0.15 0.45 0.025
89 1 0.2 0.4 0
96 2 0.35 0.45 0.025
97 1 0.4 0.4 0
104 2 0.55 0.45 0.025
105 1 0.6 0.4 0
112 2 0.75 0.45 0.025
113 1 0.8 0.4 0
120 2 0.95 0.45 0.025
83 1 0.1 0.5 0
91 1 0.3 0.5 0
99 1 0.5 0.5 0
107 1 0.7 0.5 0
115 1 0.9 0.5 0
86 2 0.05 0.55 0.025
121 1 0 0.6 0
129 1 0.2 0.6 0
94 2 0.25 0.55 0.025
102 2 0.45 0.55 0.025
137 1 0.4 0.6 0
145 1 0.6 0.6 0
110 2 0.65 0.55 0.025
153 1 0.8 0.6 0
118 2 0.85 0.55 0.025
128 2 0.15 0.65 0.025
136 2 0.35 0.65 0.025
144 2 0.55 0.65 0.025
152 2 0.75 0.65 0.025
160 2 0.95 0.65 0.025
126 2 0.05 0.75 0.025
123 1 0.1 0.7 0
131 1 0.3 0.7 0
134 2 0.25 0.75 0.025
142 2 0.45 0.75 0.025
139 1 0.5 0.7 0
150 2 0.65 0.75 0.025
147 1 0.7 0.7 0
155 1 0.9 0.7 0
158 2 0.85 0.75 0.025
161 1 0 0.8 0
169 1 0.2 0.8 0
177 1 0.4 0.8 0
185 1 0.6 0.8 0
193 1 0.8 0.8 0
163 1 0.1 0.9 0
168 2 0.15 0.85 0.025
171 1 0.3 0.9 0
176 2 0.35 0.85 0.025
179 1 0.5 0.9 0
184 2 0.55 0.85 0.025
187 1 0.7 0.9 0
192 2 0.75 0.85 0.025
195 1 0.9 0.9 0
200 2 0.95 0.85 0.025
166 2 0.05 0.95 0.025
174 2 0.25 0.95 0.025
182 2 0.45 0.95 0.025
190 2 0.65 0.95 0.025
198 2 0.85 0.95 0.025
7 2 0.0500039 0.050034 0.0752476
2 1 0.1 0 0.05
10 1 0.3 0 0.05
15 2 0.249977 0.0500014 0.0752606
23 2 0.450021 0.0500109 0.0752635
18 1 0.5 0 0.05
31 2 0.650017 0.0500022 0.0752468
26 1 0.7 0 0.05
34 1 0.9 0 0.05
39 2 0.850026 0.0500074 0.0752519
4 1 0 0.1 0.05
5 2 0.149972 0.150008 0.0752338
12 1 0.2 0.1 0.05
13 2 0.349983 0.150014 0.0752642
20 1 0.4 0.1 0.05
21 2 0.550009 0.150018 0.0752335
28 1 0.6 0.1 0.05
29 2 0.750034 0.149976 0.0752377
36 1 0.8 0.1 0.05
37 2 0.950013 0.149962 0.0752647
42 1 0.1 0.2 0.05
50 1 0.3 0.2 0.05
58 1 0.5 0.2 0.05
66 1 0.7 0.2 0.05
74 1 0.9 0.2 0.05
44 1 0 0.3 0.05
47 2 0.049969 0.250027 0.075226
52 1 0.2 0.3 0.05
55 2 0.24999 0.250032 0.0752664
60 1 0.4 0.3 0.05
63 2 0.449992 0.249982 0.0752532
68 1 0.6 0.3 0.05
71 2 0.650035 0.249959 0.0752429
76 1 0.8 0.3 0.05
79 2 0.849971 0.250029 0.075239
45 2 0.14996 0.350035 0.0752331
53 2 0.349983 0.349998 0.0752344
61 2 0.550039 0.349998 0.0752456
69 2 0.750009 0.349959 0.0752427
77 2 0.949999 0.350024 0.0752599
87 2 0.0499698 0.449971 0.0752419
82 1 0.1 0.4 0.05
90 1 0.3 0.4 0.05
95 2 0.25003 0.450018 0.0752562
103 2 0.449978 0.449995 0.0752287
98 1 0.5 0.4 0.05
111 2 0.650014 0.449958 0.0752458
106 1 0.7 0.4 0.05
114 1 0.9 0.4 0.05
119 2 0.850011 0.449956 0.0752343
84 1 0 0.5 0.05
92 1 0.2 0.5 0.05
100 1 0.4 0.5 0.05
108 1 0.6 0.5 0.05
116 1 0.8 0.5 0.05
85 2 0.14996 0.549987 0.0752465
122 1 0.1 0.6 0.05
130 1 0.3 0.6 0.05
93 2 0.349989 0.550027 0.0752511
138 1 0.5 0.6 0.05
101 2 0.550012 0.550041 0.075264
109 2 0.750034 0.549967 0.0752629
146 1 0.7 0.6 0.05
154 1 0.9 0.6 0.05
117 2 0.950005 0.55004 0.075236
127 2 0.050042 0.65003 0.0752302
135 2 0.24998 0.649991 0.0752547
143 2 0.450005 0.650032 0.0752334
151 2 0.649968 0.650005 0.0752292
159 2 0.85001 0.650023 0.0752587
124 1 0 0.7 0.05
125 2 0.150043 0.750004 0.0752637
132 1 0.2 0.7 0.05
133 2 0.350005 0.749973 0.0752381
140 1 0.4 0.7 0.05
141 2 0.549973 0.750025 0.075261
148 1 0.6 0.7 0.05
149 2 0.749991 0.750008 0.0752427
156 1 0.8 0.7 0.05
157 2 0.950003 0.750028 0.0752447
162 1 0.1 0.8 0.05
170 1 0.3 0.8 0.05
178 1 0.5 0.8 0.05
186 1 0.7 0.8 0.05
194 1 0.9 0.8 0.05
164 1 0 0.9 0.05
167 2 0.0499992 0.850042 0.0752326
172 1 0.2 0.9 0.05
175 2 0.250026 0.849994 0.0752595
180 1 0.4 0.9 0.05
183 2 0.450029 0.850038 0.0752404
188 1 0.6 0.9 0.05
191 2 0.650024 0.849959 0.0752618
196 1 0.8 0.9 0.05
199 2 0.850039 0.849999 0.0752593
165 2 0.149959 0.949984 0.0752643
173 2 0.349998 0.949992 0.0752579
181 2 0.549965 0.949988 0.0752424
189 2 0.75003 0.950007 0.0752343
197 2 0.949969 0.949982 0.0752358
201 1 1.34912e-05 2.21526e-05 0.100496
209 1 0.200003 -3.02935e-05 0.10048
217 1 0.399966 3.83508e-05 0.100493
225 1 0.599962 -3.46471e-05 0.10048
233 1 0.800034 -1.69245e-05 0.100462
203 1 0.100036 0.100006 0.100467
211 1 0.300008 0.100015 0.100486
219 1 0.500025 0.100042 0.100463
227 1 0.700011 0.100028 0.100467
235 1 0.900026 0.100001 0.100466
249 1 0.200042 0.199961 0.10048
257 1 0.400017 0.200005 0.1005
265 1 0.599985 0.200033 0.10049
273 1 0.799972 0.200031 0.100468
241 1 1 0.200025 0.100485
243 1 0.0999796 0.299958 0.100498
251 1 0.299973 0.299984 0.100462
259 1 0.500004 0.299962 0.100474
267 1 0.700036 0.299989 0.100486
275 1 0.900021 0.300023 0.100493
281 1 6.87514e-07 0.399959 0.100471
289 1 0.200005 0.399991 0.100492
297 1 0.400023 0.400006 0.100464
305 1 0.600014 0.399954 0.100507
313 1 0.800016 0.399995 0.100503
283 1 0.100003 0.500037 0.100464
291 1 0.299955 0.499998 0.100489
299 1 0.500039 0.500033 0.100502
307 1 0.700022 0.500029 0.100479
315 1 0.899978 0.499958 0.100491
329 1 0.199974 0.599978 0.100491
337 1 0.40003 0.600021 0.100505
345 1 0.600045 0.599956 0.100485
353 1 0.79996 0.599987 0.100476
321 1 0.999981 0.600042 0.10049
323 1 0.100002 0.699999 0.100468
331 1 0.300021 0.69999 0.100462
339 1 0.499964 0.700046 0.100502
347 1 0.700037 0.699981 0.100505
355 1 0.899986 0.700001 0.100493
369 1 0.200045 0.800042 0.10048
377 1 0.399969 0.800026 0.100485
385 1 0.599983 0.800022 0.100502
393 1 0.799971 0.799993 0.100494
361 1 1.00002 0.800008 0.100486
363 1 0.0999832 0.899957 0.100471
371 1 0.300005 0.899998 0.100507
379 1 0.499997 0.899958 0.100494
387 1 0.700031 0.900003 0.100474
395 1 0.899969 0.899971 0.100483
202 1 0.100008 1.10582e-05 0.150979
208 2 0.149962 0.0500267 0.125707
210 1 0.299964 3.23748e-05 0.150971
216 2 0.350005 0.0500354 0.125713
218 1 0.499977 5.5284e-06 0.15096
224 2 0.549964 0.0500278 0.125746
226 1 0.699993 -3.2167e-05 0.150951
232 2 0.750011 0.0500259 0.125728
240 2 0.950004 0.0500287 0.125712
206 2 0.0500269 0.150011 0.125715
212 1 0.199987 0.100026 0.150986
214 2 0.25 0.150026 0.125724
220 1 0.399987 0.0999573 0.150945
222 2 0.449984 0.149981 0.125706
228 1 0.599978 0.100013 0.150966
230 2 0.650016 0.14999 0.125711
236 1 0.799983 0.0999869 0.150955
238 2 0.849964 0.149982 0.125746
204 1 0.999967 0.1 0.150963
242 1 0.100043 0.199986 0.150968
250 1 0.300016 0.199989 0.150986
258 1 0.49997 0.200001 0.150967
266 1 0.700009 0.200009 0.150943
274 1 0.899954 0.199982 0.150973
248 2 0.149972 0.250029 0.125712
252 1 0.200003 0.30004 0.150956
256 2 0.350012 0.249995 0.125723
260 1 0.400043 0.299959 0.150985
264 2 0.549999 0.250001 0.125724
268 1 0.599991 0.300034 0.15097
272 2 0.750012 0.249961 0.125723
276 1 0.800008 0.300025 0.150974
244 1 0.999997 0.29998 0.150948
280 2 0.950001 0.249966 0.12571
246 2 0.0500377 0.34997 0.125713
254 2 0.249975 0.350017 0.125711
262 2 0.449977 0.350006 0.125742
270 2 0.650023 0.350035 0.125729
278 2 0.849987 0.350038 0.125712
282 1 0.100023 0.399964 0.150981
288 2 0.150031 0.449976 0.12574
290 1 0.299977 0.399955 0.150974
296 2 0.349995 0.45 0.125746
298 1 0.500009 0.399979 0.150981
304 2 0.55 0.449996 0.125719
306 1 0.700006 0.399958 0.150959
312 2 0.750027 0.450003 0.125717
314 1 0.899977 0.399987 0.150967
320 2 0.949981 0.450027 0.125736
284 1 -6.54953e-06 0.499983 0.15096
292 1 0.200035 0.499955 0.150954
300 1 0.400019 0.500043 0.150961
308 1 0.600014 0.499982 0.15096
316 1 0.799991 0.500023 0.150952
286 2 0.0499971 0.549976 0.125707
322 1 0.100029 0.600012 0.150985
294 2 0.249964 0.549992 0.125705
330 1 0.300017 0.600043 0.150963
302 2 0.450023 0.550032 0.125738
338 1 0.500026 0.599979 0.150945
310 2 0.649982 0.550007 0.125712
346 1 0.700016 0.60004 0.150952
318 2 0.849985 0.550019 0.125704
354 1 0.899959 0.599953 0.150985
328 2 0.150009 0.650027 0.12572
336 2 0.349987 0.650021 0.125747
344 2 0.549989 0.649965 0.125718
352 2 0.749972 0.649985 0.125719
360 2 0.949961 0.650019 0.125716
326 2 0.0499617 0.749982 0.125708
332 1 0.200024 0.70001 0.150971
334 2 0.250025 0.750028 0.125733
340 1 0.399968 0.699961 0.150972
342 2 0.450027 0.750014 0.125747
348 1 0.600001 0.699966 0.150969
350 2 0.650039 0.749997 0.125742
356 1 0.800032 0.700018 0.150987
358 2 0.850039 0.750012 0.125709
324 1 1.00005 0.699973 0.150961
362 1 0.100016 0.800024 0.15097
370 1 0.299987 0.799988 0.150972
378 1 0.500014 0.80001 0.150986
386 1 0.700045 0.799992 0.150982
394 1 0.899974 0.799962 0.150969
364 1 2.62756e-05 0.899996 0.150957
368 2 0.150008 0.849988 0.12571
372 1 0.199961 0.9 0.150984
376 2 0.349969 0.850019 0.125737
380 1 0.400045 0.899993 0.15097
384 2 0.550044 0.850043 0.125713
388 1 0.600045 0.900003 0.150963
392 2 0.75001 0.850033 0.125744
396 1 0.800015 0.899967 0.150984
400 2 0.95003 0.849976 0.125742
366 2 0.0500017 0.950035 0.125718
374 2 0.249964 0.949966 0.125721
382 2 0.450008 0.95004 0.125706
390 2 0.649959 0.949992 0.125717
234 1 0.90004 0.999957 0.150951
398 2 0.850029 0.950022 0.12572
207 2 0.0500139 0.0499951 0.17619
215 2 0.250017 0.0499722 0.176191
223 2 0.450039 0.0499615 0.176194
231 2 0.649988 0.0500149 0.176211
239 2 0.850003 0.0499695 0.176183
205 2 0.150029 0.150009 0.176207
213 2 0.35002 0.149989 0.176219
221 2 0.549957 0.150015 0.176216
229 2 0.750001 0.149975 0.176193
237 2 0.949972 0.149964 0.176212
247 2 0.0500349 0.250012 0.176212
255 2 0.249992 0.249972 0.176215
263 2 0.449977 0.249996 0.176194
271 2 0.65004 0.249968 0.176209
279 2 0.849966 0.250007 0.176189
245 2 0.149977 0.350034 0.176188
253 2 0.350035 0.349973 0.176221
261 2 0.550003 0.349981 0.176196
269 2 0.750015 0.350008 0.176184
277 2 0.950008 0.35 0.176199
287 2 0.0500028 0.449999 0.176206
295 2 0.249961 0.450042 0.176222
303 2 0.450021 0.450006 0.1762
311 2 0.649972 0.449998 0.176193
319 2 0.849984 0.450003 0.176215
285 2 0.149963 0.549994 0.176225
293 2 0.350044 0.550038 0.176196
301 2 0.549995 0.55 0.176216
309 2 0.749991 0.549972 0.176226
317 2 0.950043 0.549968 0.176214
327 2 0.0499929 0.65 0.176184
335 2 0.250024 0.649964 0.176224
343 2 0.450022 0.649976 0.176183
351 2 0.649961 0.650022 0.176214
359 2 0.85002 0.649971 0.176203
325 2 0.150014 0.75002 0.17619
333 2 0.350016 0.749958 0.176201
341 2 0.549998 0.749968 0.176213
349 2 0.750021 0.750016 0.176223
357 2 0.950021 0.749969 0.176185
367 2 0.0500265 0.849962 0.176194
375 2 0.24997 0.849973 0.176189
383 2 0.44998 0.849998 0.176202
391 2 0.650042 0.850011 0.176218
399 2 0.850038 0.849964 0.176227
365 2 0.15001 0.94999 0.176195
373 2 0.349971 0.950019 0.176205
381 2 0.549988 0.949977 0.176192
389 2 0.749963 0.950024 0.176219
397 2 0.949962 0.949961 0.176211
401 1 -2.53789e-05 -8.79976e-06 0.201456
408 2 0.150003 0.050024 0.226701
409 1 0.199978 3.81048e-06 0.20146
416 2 0.349966 0.0500089 0.226696
417 1 0.399977 -2.72038e-05 0.201462
424 2 0.550033 0.0499622 0.226684
425 1 0.599972 2.17568e-05 0.201431
432 2 0.750016 0.0500328 0.22668
440 2 0.94997 0.0499602 0.226703
406 2 0.049997 0.149974 0.226683
403 1 0.100002 0.100015 0.201466
411 1 0.299956 0.0999799 0.201464
414 2 0.249983 0.150037 0.22669
422 2 0.449966 0.14998 0.226678
419 1 0.500017 0.0999965 0.201451
430 2 0.649974 0.150041 0.226673
427 1 0.699957 0.100031 0.201433
435 1 0.899974 0.0999751 0.201444
438 2 0.850038 0.150005 0.226702
441 1 -3.43955e-05 0.199957 0.201437
449 1 0.199995 0.199994 0.201463
457 1 0.399992 0.200044 0.201468
465 1 0.599955 0.200037 0.201465
473 1 0.799994 0.200023 0.20143
443 1 0.0999751 0.300018 0.201452
448 2 0.150012 0.249984 0.226663
451 1 0.300005 0.299957 0.201449
456 2 0.349994 0.24999 0.226704
459 1 0.499997 0.300002 0.201427
464 2 0.550001 0.249998 0.226691
467 1 0.699993 0.29996 0.201456
472 2 0.750023 0.250003 0.226671
475 1 0.899994 0.299964 0.201453
480 2 0.95004 0.250039 0.226677
446 2 0.050025 0.349961 0.226671
454 2 0.249975 0.349991 0.226669
462 2 0.449991 0.35003 0.226691
470 2 0.650029 0.349962 0.226689
478 2 0.849993 0.35003 0.226669
481 1 3.77298e-05 0.399994 0.201433
488 2 0.149989 0.450024 0.226699
489 1 0.199957 0.399971 0.201463
496 2 0.349979 0.449991 0.226688
497 1 0.399989 0.400036 0.201466
504 2 0.549964 0.449956 0.226701
505 1 0.600003 0.400007 0.20145
512 2 0.75 0.449988 0.226698
513 1 0.800006 0.399988 0.201428
520 2 0.950018 0.45001 0.226666
483 1 0.0999702 0.500037 0.201462
491 1 0.300007 0.499997 0.201443
499 1 0.500046 0.499973 0.201455
507 1 0.699966 0.500025 0.201424
515 1 0.89997 0.499967 0.201453
486 2 0.0500086 0.550004 0.226682
521 1 3.83323e-05 0.599964 0.20144
529 1 0.200004 0.599985 0.201467
494 2 0.249962 0.550034 0.226685
502 2 0.449973 0.550034 0.226689
537 1 0.399966 0.599993 0.201433
545 1 0.600012 0.599977 0.201422
510 2 0.649966 0.549966 0.226703
553 1 0.799986 0.600017 0.201444
518 2 0.849978 0.550012 0.226704
528 2 0.149998 0.649975 0.226681
536 2 0.350019 0.649993 0.226668
544 2 0.55004 0.650037 0.226677
552 2 0.750032 0.65002 0.226667
560 2 0.950032 0.649957 0.226688
526 2 0.0499831 0.750006 0.226685
523 1 0.100045 0.700035 0.201437
531 1 0.299966 0.699954 0.20146
534 2 0.249968 0.749984 0.226698
542 2 0.449964 0.750031 0.226705
539 1 0.50004 0.700042 0.201457
550 2 0.650039 0.749958 0.226681
547 1 0.699989 0.700037 0.201436
555 1 0.900027 0.700029 0.201431
558 2 0.850014 0.74998 0.22667
561 1 4.36949e-05 0.800006 0.201426
569 1 0.199986 0.799976 0.201461
577 1 0.400028 0.800006 0.201443
585 1 0.600011 0.800041 0.201463
593 1 0.800046 0.800033 0.201459
563 1 0.100044 0.899964 0.201447
568 2 0.150008 0.850037 0.226689
571 1 0.299959 0.899985 0.201438
576 2 0.349993 0.850002 0.226699
579 1 0.500006 0.899977 0.201429
584 2 0.550027 0.849981 0.226679
587 1 0.700005 0.900006 0.201465
592 2 0.750022 0.849994 0.226669
595 1 0.900038 0.900042 0.201465
600 2 0.949996 0.850028 0.22667
566 2 0.0499964 0.94998 0.226692
574 2 0.250043 0.949974 0.226672
582 2 0.450007 0.949962 0.226669
590 2 0.65 0.949958 0.226684
433 1 0.799961 1.00002 0.201432
598 2 0.84999 0.950017 0.226675
418 1 0.500037 -3.67892e-05 0.251927
426 1 0.699963 2.4808e-06 0.251907
412 1 0.200024 0.100018 0.251943
420 1 0.40003 0.100037 0.251926
428 1 0.600011 0.100045 0.251909
436 1 0.799983 0.100001 0.251934
404 1 0.99996 0.100019 0.251909
442 1 0.0999649 0.200039 0.251943
450 1 0.300017 0.200023 0.251925
458 1 0.499977 0.200014 0.25193
466 1 0.699997 0.199956 0.251922
474 1 0.899997 0.199976 0.251946
444 1 -1.36641e-05 0.300022 0.251915
452 1 0.200014 0.300031 0.251945
460 1 0.400047 0.299983 0.25191
468 1 0.599961 0.300009 0.251935
476 1 0.800002 0.299963 0.251932
482 1 0.100026 0.399983 0.251906
490 1 0.300011 0.400027 0.251917
498 1 0.499985 0.400036 0.251944
506 1 0.69996 0.399969 0.251922
514 1 0.899978 0.40002 0.251924
484 1 5.3092e-06 0.499975 0.251935
492 1 0.199986 0.499964 0.251906
500 1 0.399985 0.499993 0.251923
508 1 0.599997 0.499954 0.251903
516 1 0.800046 0.499962 0.25191
522 1 0.100019 0.600007 0.251943
530 1 0.299989 0.59999 0.251924
538 1 0.499975 0.599966 0.251935
546 1 0.700028 0.600003 0.251916
554 1 0.900023 0.600036 0.251929
532 1 0.199962 0.69996 0.251922
540 1 0.399995 0.7 0.251927
548 1 0.599986 0.699974 0.25193
556 1 0.799954 0.70004 0.251932
524 1 1.00001 0.700007 0.25193
562 1 0.100009 0.799978 0.251936
570 1 0.29998 0.799966 0.251926
578 1 0.500016 0.799982 0.251905
586 1 0.700017 0.800001 0.25192
594 1 0.900022 0.799968 0.251917
564 1 1.94769e-05 0.899993 0.251922
572 1 0.199986 0.89996 0.251926
580 1 0.400047 0.900018 0.25191
588 1 0.600013 0.900016 0.251927
596 1 0.800045 0.899984 0.251904
402 1 0.0999711 0.999964 0.251911
410 1 0.300022 1.00003 0.25193
434 1 0.89996 0.999964 0.251912
407 2 0.0499882 0.0500241 0.277172
415 2 0.249963 0.0499887 0.277176
423 2 0.450015 0.0500271 0.277182
625 1 0.599999 2.77482e-05 0.302394
431 2 0.649989 0.0499919 0.277185
439 2 0.850025 0.0499852 0.277171
405 2 0.149998 0.149987 0.277156
603 1 0.100038 0.100032 0.302406
611 1 0.299957 0.100003 0.302424
413 2 0.350018 0.150012 0.277159
619 1 0.499954 0.0999553 0.302384
421 2 0.549968 0.150008 0.277153
429 2 0.750038 0.149979 0.277167
627 1 0.699959 0.0999565 0.302417
635 1 0.900038 0.100027 0.302415
437 2 0.950002 0.150002 0.277186
641 1 -1.66475e-05 0.200003 0.302422
649 1 0.200009 0.200019 0.302392
657 1 0.400046 0.200033 0.302388
665 1 0.599989 0.20004 0.302387
673 1 0.800043 0.200029 0.302419
447 2 0.0500078 0.249977 0.277169
643 1 0.100047 0.299999 0.302393
455 2 0.250039 0.249986 0.277152
651 1 0.29998 0.299996 0.302402
463 2 0.449982 0.249959 0.277175
659 1 0.499996 0.299981 0.302388
471 2 0.649961 0.249966 0.277156
667 1 0.700018 0.299998 0.302411
479 2 0.850007 0.250023 0.277152
675 1 0.900005 0.299957 0.302416
445 2 0.149994 0.35003 0.27715
453 2 0.349996 0.350023 0.277173
461 2 0.549992 0.350023 0.277148
469 2 0.75 0.350036 0.277157
477 2 0.949992 0.349964 0.277169
487 2 0.0499808 0.449985 0.277186
689 1 0.200005 0.399959 0.302382
495 2 0.249958 0.449978 0.277143
503 2 0.450028 0.450017 0.277144
697 1 0.400001 0.400007 0.302391
705 1 0.600032 0.399986 0.302423
511 2 0.65003 0.450043 0.277175
713 1 0.800017 0.400045 0.302398
519 2 0.85003 0.449994 0.277181
681 1 1.00002 0.400016 0.302425
683 1 0.100005 0.499962 0.302416
691 1 0.299979 0.499993 0.302401
699 1 0.499982 0.499989 0.302417
707 1 0.700018 0.499994 0.302404
715 1 0.900028 0.500001 0.3024
485 2 0.149979 0.550024 0.277179
729 1 0.199972 0.600026 0.302395
493 2 0.350015 0.550017 0.277172
737 1 0.4 0.599991 0.302383
501 2 0.55001 0.549967 0.277179
745 1 0.600002 0.600039 0.302411
509 2 0.750021 0.54998 0.277155
753 1 0.80003 0.600021 0.302408
721 1 1.00004 0.599998 0.302391
517 2 0.949983 0.55003 0.27718
527 2 0.0500257 0.649967 0.277181
535 2 0.249962 0.650017 0.277181
543 2 0.450044 0.650013 0.277166
551 2 0.650039 0.649985 0.277167
559 2 0.849987 0.649998 0.277148
525 2 0.149972 0.749994 0.277186
723 1 0.0999888 0.699999 0.302413
731 1 0.300043 0.699989 0.302394
533 2 0.350011 0.750043 0.277145
739 1 0.500006 0.700045 0.302412
541 2 0.54998 0.750005 0.277179
549 2 0.749986 0.749984 0.277167
747 1 0.699969 0.700018 0.302382
755 1 0.900003 0.699954 0.302411
557 2 0.949958 0.750041 0.277166
761 1 3.30638e-05 0.800038 0.302426
769 1 0.199988 0.79997 0.302402
777 1 0.400028 0.800033 0.302401
785 1 0.599994 0.800013 0.302405
793 1 0.80001 0.799999 0.302396
567 2 0.0500104 0.850031 0.277172
763 1 0.100026 0.900032 0.30242
575 2 0.249992 0.849982 0.277153
771 1 0.300019 0.90004 0.302391
583 2 0.450043 0.849974 0.277144
779 1 0.500044 0.899994 0.302394
591 2 0.649994 0.849989 0.277164
787 1 0.700001 0.899961 0.302414
599 2 0.849978 0.850027 0.277157
795 1 0.899959 0.899958 0.30239
565 2 0.150034 0.950002 0.277178
609 1 0.199967 0.999995 0.30242
573 2 0.350019 0.95001 0.277174
617 1 0.399995 0.999954 0.302384
581 2 0.549999 0.949981 0.277184
589 2 0.749976 0.949969 0.277155
633 1 0.799976 0.999964 0.302415
601 1 0.999985 1.00003 0.302415
597 2 0.950035 0.950043 0.27717
608 2 0.149971 0.0500411 0.327661
616 2 0.350003 0.0500026 0.327623
624 2 0.549972 0.049967 0.327659
632 2 0.750006 0.0499869 0.32764
640 2 0.950028 0.0499763 0.327662
606 2 0.0499794 0.14997 0.327657
614 2 0.250039 0.150028 0.327631
622 2 0.450026 0.15002 0.327663
630 2 0.649958 0.149986 0.327623
638 2 0.849993 0.149978 0.327651
648 2 0.149964 0.249978 0.327666
656 2 0.350015 0.249975 0.327652
664 2 0.549964 0.250008 0.327665
672 2 0.749994 0.249968 0.327654
680 2 0.950029 0.250023 0.327647
646 2 0.0499939 0.349994 0.32766
654 2 0.249967 0.349974 0.327623
662 2 0.449972 0.349983 0.327663
670 2 0.650011 0.349964 0.327637
678 2 0.850009 0.349997 0.327633
688 2 0.149965 0.450005 0.327658
696 2 0.350036 0.449996 0.327629
704 2 0.55002 0.449962 0.32764
712 2 0.749966 0.44998 0.327634
720 2 0.949994 0.449986 0.327628
686 2 0.0499624 0.549976 0.327661
694 2 0.25003 0.549997 0.32764
702 2 0.450027 0.550024 0.327629
710 2 0.650005 0.549996 0.327642
718 2 0.850005 0.549986 0.327634
728 2 0.149985 0.649991 0.327653
736 2 0.35002 0.650026 0.327629
744 2 0.54997 0.65001 0.327634
752 2 0.749994 0.650023 0.327644
760 2 0.950008 0.650025 0.327635
726 2 0.049986 0.750029 0.327634
734 2 0.249966 0.749981 0.327664
742 2 0.449979 0.749968 0.327653
750 2 0.649962 0.749979 0.327651
758 2 0.84999 0.749995 0.32764
768 2 0.150011 0.850025 0.32763
776 2 0.350016 0.850016 0.327654
784 2 0.550029 0.85002 0.327665
792 2 0.750007 0.849982 0.32765
800 2 0.949967 0.850028 0.327645
766 2 0.0500322 0.950002 0.327663
774 2 0.24998 0.949992 0.327665
782 2 0.450041 0.950003 0.327646
790 2 0.649957 0.949969 0.327651
798 2 0.850006 0.949974 0.327651
607 2 0.0500263 0.0499794 0.37812
602 1 0.0999692 -1.54743e-05 0.352865
610 1 0.300004 9.22133e-06 0.352872
615 2 0.249998 0.0499925 0.378133
623 2 0.449977 0.0499838 0.378121
618 1 0.500042 2.74046e-05 0.352869
631 2 0.650017 0.0500426 0.378137
634 1 0.89997 3.79716e-05 0.352903
639 2 0.849984 0.0500432 0.378142
604 1 -1.11907e-05 0.0999975 0.352862
605 2 0.149958 0.149972 0.378108
612 1 0.200001 0.0999648 0.352898
613 2 0.349978 0.150002 0.378124
620 1 0.399982 0.100013 0.352883
621 2 0.54996 0.150008 0.378119
628 1 0.60002 0.0999576 0.3529
629 2 0.749988 0.149972 0.378136
636 1 0.800026 0.0999851 0.352875
637 2 0.949963 0.150032 0.378126
642 1 0.0999777 0.199989 0.352888
650 1 0.29996 0.199999 0.352899
658 1 0.499989 0.20002 0.352868
666 1 0.700018 0.200024 0.352889
674 1 0.900043 0.200002 0.352866
644 1 3.65971e-05 0.299998 0.352873
647 2 0.0499914 0.249981 0.378109
652 1 0.200031 0.300014 0.352864
655 2 0.249999 0.250003 0.378123
660 1 0.399973 0.300017 0.352875
663 2 0.450026 0.24996 0.378106
668 1 0.599955 0.300032 0.352874
671 2 0.650005 0.250006 0.378141
676 1 0.799958 0.300033 0.352877
679 2 0.850005 0.249984 0.378109
645 2 0.15001 0.349983 0.378117
653 2 0.349976 0.350025 0.378128
661 2 0.550025 0.350043 0.378106
669 2 0.749985 0.349965 0.378139
677 2 0.950004 0.350022 0.378116
687 2 0.0499848 0.450033 0.37811
682 1 0.100006 0.400025 0.352907
690 1 0.300016 0.400033 0.352891
695 2 0.250038 0.449988 0.378127
703 2 0.450025 0.450016 0.378144
698 1 0.49999 0.399984 0.352898
711 2 0.649977 0.450037 0.378128
706 1 0.699984 0.399999 0.352884
714 1 0.899989 0.399988 0.352877
719 2 0.850024 0.450025 0.378146
692 1 0.200013 0.500012 0.352899
700 1 0.400012 0.500036 0.352874
708 1 0.600032 0.500015 0.352904
716 1 0.800028 0.499976 0.352892
684 1 0.999961 0.500003 0.352889
685 2 0.150037 0.549977 0.378106
722 1 0.0999579 0.600003 0.352894
730 1 0.299987 0.599965 0.352885
693 2 0.350018 0.549967 0.378109
738 1 0.499968 0.600027 0.352863
701 2 0.549988 0.550004 0.378142
709 2 0.749982 0.549982 0.378127
746 1 0.700023 0.60004 0.352895
754 1 0.899999 0.599959 0.352898
717 2 0.950005 0.550009 0.378133
727 2 0.0499724 0.650042 0.378116
735 2 0.249996 0.650004 0.378109
743 2 0.450032 0.650034 0.378126
751 2 0.649968 0.649999 0.378146
759 2 0.849991 0.649998 0.378111
724 1 -3.43786e-05 0.700005 0.352879
725 2 0.150004 0.749994 0.37813
732 1 0.200015 0.700005 0.352892
733 2 0.350022 0.749979 0.378143
740 1 0.400029 0.70001 0.352879
741 2 0.55001 0.750014 0.378144
748 1 0.600024 0.700014 0.352895
749 2 0.749964 0.749991 0.378134
756 1 0.799973 0.700018 0.352872
757 2 0.949968 0.750005 0.378129
762 1 0.100028 0.799975 0.352905
770 1 0.300008 0.800002 0.35287
778 1 0.500033 0.799955 0.352867
786 1 0.699976 0.799973 0.352874
794 1 0.899955 0.799999 0.352884
764 1 -1.21012e-05 0.899993 0.352896
767 2 0.0499893 0.849961 0.378113
772 1 0.199955 0.900022 0.352891
775 2 0.249976 0.850041 0.378114
780 1 0.399983 0.899969 0.352905
783 2 0.450024 0.849968 0.378118
788 1 0.599965 0.900046 0.352903
791 2 0.650017 0.850024 0.378132
796 1 0.800017 0.900041 0.352864
799 2 0.849966 0.85003 0.378117
765 2 0.150026 0.949969 0.378122
773 2 0.34996 0.949968 0.378114
781 2 0.550036 0.95001 0.378114
626 1 0.700005 0.999987 0.352884
789 2 0.749988 0.949971 0.378113
797 2 0.95003 0.950031 0.378139
801 1 -4.48084e-05 -1.81012e-06 0.403346
809 1 0.199956 -3.81205e-05 0.403343
817 1 0.399971 3.59754e-07 0.403373
833 1 0.800022 3.14191e-05 0.403351
803 1 0.100014 0.100026 0.40336
811 1 0.300039 0.0999585 0.403342
819 1 0.499969 0.0999837 0.403359
827 1 0.700026 0.10002 0.403352
835 1 0.899993 0.0999938 0.403356
841 1 -9.58715e-07 0.199998 0.403379
849 1 0.199961 0.199969 0.403386
857 1 0.399996 0.20002 0.403353
865 1 0.599995 0.200015 0.403357
873 1 0.800018 0.19999 0.403348
843 1 0.0999794 0.300042 0.403357
851 1 0.300019 0.299979 0.403386
859 1 0.500039 0.299955 0.40338
867 1 0.699959 0.299978 0.403365
875 1 0.899983 0.300034 0.403382
881 1 4.02383e-05 0.4 0.403354
889 1 0.19997 0.400034 0.403346
897 1 0.399965 0.399976 0.403343
905 1 0.600027 0.40004 0.403349
913 1 0.800035 0.399972 0.403362
883 1 0.0999807 0.499954 0.403382
891 1 0.299973 0.500034 0.403379
899 1 0.500038 0.499988 0.403382
907 1 0.700003 0.499981 0.403378
915 1 0.899962 0.499991 0.403348
929 1 0.200038 0.599993 0.403359
937 1 0.400002 0.599957 0.403369
945 1 0.599982 0.599982 0.403387
953 1 0.800026 0.599969 0.403354
921 1 1.00002 0.600004 0.403387
923 1 0.0999581 0.700015 0.403345
931 1 0.299997 0.700026 0.403382
939 1 0.499974 0.700012 0.403349
947 1 0.700016 0.69997 0.403385
955 1 0.899979 0.699976 0.403374
961 1 1.57462e-07 0.799987 0.403374
969 1 0.199978 0.800041 0.403372
977 1 0.399975 0.800001 0.403382
985 1 0.600018 0.799977 0.403359
993 1 0.799977 0.799972 0.403371
963 1 0.0999624 0.899972 0.403384
971 1 0.300022 0.899985 0.403378
979 1 0.500032 0.899965 0.403364
987 1 0.699988 0.899972 0.403363
995 1 0.899984 0.899968 0.403345
825 1 0.599996 0.999979 0.403375
808 2 0.149992 0.0499861 0.428609
816 2 0.349981 0.0500059 0.428589
818 1 0.500009 2.44394e-05 0.453862
824 2 0.549989 0.0499712 0.428593
826 1 0.700012 7.45247e-06 0.453837
832 2 0.749962 0.0499711 0.428599
840 2 0.950007 0.0500015 0.428588
804 1 2.01761e-05 0.0999609 0.453849
806 2 0.0499889 0.15 0.42861
812 1 0.199963 0.100021 0.453842
814 2 0.249968 0.149964 0.428586
820 1 0.400023 0.0999816 0.453855
822 2 0.449967 0.149959 0.428616
828 1 0.600023 0.100001 0.45385
830 2 0.649968 0.149986 0.428594
836 1 0.799954 0.100003 0.453821
838 2 0.849959 0.150007 0.428585
842 1 0.100032 0.200021 0.453841
850 1 0.299965 0.199994 0.453829
858 1 0.500037 0.200042 0.453862
866 1 0.699966 0.200038 0.453833
874 1 0.900039 0.199962 0.453838
848 2 0.150004 0.250036 0.428614
852 1 0.200003 0.300001 0.45384
856 2 0.34997 0.250016 0.428607
860 1 0.399973 0.299977 0.453855
864 2 0.54998 0.249974 0.428585
868 1 0.599981 0.300021 0.453854
872 2 0.749997 0.249977 0.428585
876 1 0.80004 0.299983 0.453835
844 1 0.999974 0.299964 0.453843
880 2 0.950043 0.250005 0.428606
846 2 0.0500362 0.350042 0.428583
854 2 0.250003 0.350028 0.428601
862 2 0.449964 0.349962 0.428621
870 2 0.649999 0.349959 0.428603
878 2 0.849998 0.350016 0.428613
882 1 0.0999974 0.400012 0.453865
888 2 0.150016 0.450039 0.428611
890 1 0.300005 0.400003 0.453853
896 2 0.349979 0.449987 0.428617
898 1 0.500009 0.399977 0.453858
904 2 0.549972 0.450031 0.428605
906 1 0.699958 0.400009 0.453834
912 2 0.750034 0.449989 0.428618
914 1 0.899961 0.399966 0.45385
920 2 0.949993 0.450037 0.428602
884 1 1.17556e-05 0.499955 0.453855
892 1 0.200006 0.500032 0.453838
900 1 0.39996 0.500044 0.453864
908 1 0.600025 0.499961 0.453834
916 1 0.800039 0.499994 0.453844
886 2 0.0499897 0.550021 0.428589
922 1 0.0999711 0.600041 0.453847
894 2 0.250026 0.549992 0.428584
930 1 0.300006 0.599961 0.453852
902 2 0.450041 0.549977 0.428612
938 1 0.499963 0.599955 0.453853
910 2 0.649999 0.550031 0.428583
946 1 0.700001 0.600011 0.453861
918 2 0.850012 0.549993 0.428611
954 1 0.900035 0.599964 0.453839
928 2 0.149996 0.650021 0.428585
936 2 0.349999 0.649959 0.428592
944 2 0.550007 0.650026 0.42862
952 2 0.74998 0.65001 0.428592
960 2 0.949999 0.649966 0.42859
924 1 -2.4435e-05 0.699985 0.453863
926 2 0.0500186 0.750018 0.428591
932 1 0.200021 0.699984 0.453847
934 2 0.25003 0.750014 0.428607
940 1 0.400007 0.700018 0.45386
942 2 0.450037 0.750036 0.428587
948 1 0.60003 0.700042 0.453859
950 2 0.649967 0.750033 0.428596
956 1 0.799985 0.700007 0.453829
958 2 0.84996 0.750017 0.428615
962 1 0.0999587 0.799954 0.453842
970 1 0.30001 0.800032 0.453851
978 1 0.499983 0.799982 0.453863
986 1 0.699988 0.800007 0.453827
994 1 0.899963 0.800025 0.453843
968 2 0.150019 0.850036 0.428596
972 1 0.199988 0.900036 0.453828
976 2 0.349997 0.850016 0.428624
980 1 0.399985 0.899977 0.45383
984 2 0.549977 0.850035 0.428609
988 1 0.600008 0.900044 0.453833
992 2 0.749992 0.850015 0.42861
996 1 0.800021 0.899984 0.45383
964 1 1 0.9 0.453853
1000 2 0.949986 0.850033 0.428611
966 2 0.050025 0.950016 0.428605
802 1 0.100015 1.00004 0.453859
810 1 0.300011 0.999959 0.453842
974 2 0.250016 0.950021 0.428607
982 2 0.450005 0.950031 0.428623
990 2 0.650025 0.950042 0.428584
834 1 0.899969 1.00002 0.45385
998 2 0.850026 0.949988 0.428621
807 2 0.0499976 0.0499586 0.479083
815 2 0.250011 0.0499608 0.47909
823 2 0.449969 0.0499927 0.479086
831 2 0.649977 0.050032 0.4791
839 2 0.849996 0.0500114 0.479072
805 2 0.150016 0.149972 0.479091
813 2 0.349986 0.150015 0.479089
821 2 0.549985 0.14998 0.479063
829 2 0.749963 0.149982 0.479092
837 2 0.949992 0.150034 0.479094
847 2 0.0499645 0.249995 0.479101
855 2 0.250033 0.249992 0.479102
863 2 0.450012 0.250027 0.479091
871 2 0.650033 0.249979 0.47909
879 2 0.849979 0.250016 0.479071
845 2 0.149999 0.349962 0.47909
853 2 0.350003 0.349985 0.479074
861 2 0.550044 0.350042 0.479081