ITEM: TIMESTEP
400
ITEM: NUMBER OF ATOMS
1250
ITEM: BOX BOUNDS pp pp pp
0.0000000000000000e+00 3.8000000000000000e+01
0.0000000000000000e+00 3.8000000000000000e+01
-1.5199999999999999e+01 6.0799999999999997e+01
ITEM: ATOMS id type xs ys zs
1 1 0 0 0
8 2 0.15 0.05 0.025
9 1 0.2 0 0
16 2 0.35 0.05 0.025
17 1 0.4 0 0
24 2 0.55 0.05 0.025
25 1 0.6 0 0
32 2 0.75 0.05 0.025
33 1 0.8 0 0
40 2 0.95 0.05 0.025
3 1 0.1 0.1 0
11 1 0.3 0.1 0
19 1 0.5 0.1 0
27 1 0.7 0.1 0
35 1 0.9 0.1 0
6 2 0.05 0.15 0.025
41 1 0 0.2 0
49 1 0.2 0.2 0
14 2 0.25 0.15 0.025
57 1 0.4 0.2 0
22 2 0.45 0.15 0.025
65 1 0.6 0.2 0
30 2 0.65 0.15 0.025
38 2 0.85 0.15 0.025
73 1 0.8 0.2 0
48 2 0.15 0.25 0.025
56 2 0.35 0.25 0.025
64 2 0.55 0.25 0.025
72 2 0.75 0.25 0.025
80 2 0.95 0.25 0.025
46 2 0.05 0.35 0.025
43 1 0.1 0.3 0
54 2 0.25 0.35 0.025
51 1 0.3 0.3 0
62 2 0.45 0.35 0.025
59 1 0.5 0.3 0
67 1 0.7 0.3 0
70 2 0.65 0.35 0.025
78 2 0.85 0.35 0.025
75 1 0.9 0.3 0
81 1 0 0.4 0
89 1 0.2 0.4 0
97 1 0.4 0.4 0
105 1 0.6 0.4 0
113 1 0.8 0.4 0
88 2 0.15 0.45 0.025
96 2 0.35 0.45 0.025
104 2 0.55 0.45 0.025
112 2 0.75 0.45 0.025
120 2 0.95 0.45 0.025
86 2 0.05 0.55 0.025
83 1 0.1 0.5 0
94 2 0.25 0.55 0.025
91 1 0.3 0.5 0
102 2 0.45 0.55 0.025
99 1 0.5 0.5 0
107 1 0.7 0.5 0
110 2 0.65 0.55 0.025
118 2 0.85 0.55 0.025
115 1 0.9 0.5 0
121 1 0 0.6 0
129 1 0.2 0.6 0
137 1 0.4 0.6 0
145 1 0.6 0.6 0
153 1 0.8 0.6 0
123 1 0.1 0.7 0
128 2 0.15 0.65 0.025
131 1 0.3 0.7 0
136 2 0.35 0.65 0.025
139 1 0.5 0.7 0
144 2 0.55 0.65 0.025
147 1 0.7 0.7 0
152 2 0.75 0.65 0.025
155 1 0.9 0.7 0
160 2 0.95 0.65 0.025
126 2 0.05 0.75 0.025
134 2 0.25 0.75 0.025
142 2 0.45 0.75 0.025
150 2 0.65 0.75 0.025
158 2 0.85 0.75 0.025
161 1 0 0.8 0
168 2 0.15 0.85 0.025
169 1 0.2 0.8 0
176 2 0.35 0.85 0.025
177 1 0.4 0.8 0
184 2 0.55 0.85 0.025
185 1 0.6 0.8 0
192 2 0.75 0.85 0.025
193 1 0.8 0.8 0
200 2 0.95 0.85 0.025
163 1 0.1 0.9 0
171 1 0.3 0.9 0
179 1 0.5 0.9 0
187 1 0.7 0.9 0
195 1 0.9 0.9 0
166 2 0.05 0.95 0.025
174 2 0.25 0.95 0.025
182 2 0.45 0.95 0.025
190 2 0.65 0.95 0.025
198 2 0.85 0.95 0.025
7 2 0.0500017 0.0500147 0.0688388
2 1 0.1 0 0.05
15 2 0.24999 0.0500006 0.0688444
10 1 0.3 0 0.05
23 2 0.450009 0.0500047 0.0688457
18 1 0.5 0 0.05
26 1 0.7 0 0.05
31 2 0.650007 0.050001 0.0688384
39 2 0.850011 0.0500032 0.0688407
34 1 0.9 0 0.05
4 1 0 0.1 0.05
12 1 0.2 0.1 0.05
20 1 0.4 0.1 0.05
28 1 0.6 0.1 0.05
36 1 0.8 0.1 0.05
42 1 0.1 0.2 0.05
5 2 0.149988 0.150003 0.0688328
50 1 0.3 0.2 0.05
13 2 0.349992 0.150006 0.0688459
58 1 0.5 0.2 0.05
21 2 0.550004 0.150008 0.0688327
66 1 0.7 0.2 0.05
29 2 0.750015 0.149989 0.0688345
74 1 0.9 0.2 0.05
37 2 0.950006 0.149984 0.0688462
47 2 0.0499866 0.250012 0.0688294
55 2 0.249996 0.250014 0.068847
63 2 0.449997 0.249992 0.0688412
71 2 0.650015 0.249982 0.0688367
79 2 0.849987 0.250013 0.0688351
44 1 0 0.3 0.05
52 1 0.2 0.3 0.05
45 2 0.149983 0.350015 0.0688325
53 2 0.349993 0.349999 0.0688331
60 1 0.4 0.3 0.05
61 2 0.550017 0.349999 0.0688379
68 1 0.6 0.3 0.05
69 2 0.750004 0.349982 0.0688366
76 1 0.8 0.3 0.05
77 2 0.949999 0.35001 0.0688441
82 1 0.1 0.4 0.05
90 1 0.3 0.4 0.05
98 1 0.5 0.4 0.05
106 1 0.7 0.4 0.05
114 1 0.9 0.4 0.05
87 2 0.0499869 0.449988 0.0688363
95 2 0.250013 0.450008 0.0688425
103 2 0.44999 0.449998 0.0688306
111 2 0.650006 0.449982 0.0688379
119 2 0.850005 0.449981 0.068833
84 1 0 0.5 0.05
92 1 0.2 0.5 0.05
85 2 0.149983 0.549995 0.0688384
93 2 0.349995 0.550012 0.0688402
100 1 0.4 0.5 0.05
101 2 0.550005 0.550018 0.0688459
108 1 0.6 0.5 0.05
109 2 0.750015 0.549986 0.0688455
116 1 0.8 0.5 0.05
117 2 0.950002 0.550017 0.0688337
122 1 0.1 0.6 0.05
130 1 0.3 0.6 0.05
138 1 0.5 0.6 0.05
146 1 0.7 0.6 0.05
154 1 0.9 0.6 0.05
124 1 0 0.7 0.05
127 2 0.0500182 0.650013 0.0688313
132 1 0.2 0.7 0.05
135 2 0.249991 0.649996 0.0688419
140 1 0.4 0.7 0.05
143 2 0.450002 0.650014 0.0688326
148 1 0.6 0.7 0.05
151 2 0.649986 0.650002 0.0688308
156 1 0.8 0.7 0.05
159 2 0.850004 0.65001 0.0688436
125 2 0.150019 0.750001 0.0688457
133 2 0.350002 0.749988 0.0688347
141 2 0.549989 0.750011 0.0688445
149 2 0.749996 0.750004 0.0688366
157 2 0.950001 0.750012 0.0688375
167 2 0.0499997 0.850018 0.0688323
162 1 0.1 0.8 0.05
175 2 0.250011 0.849997 0.0688439
170 1 0.3 0.8 0.05
183 2 0.450012 0.850017 0.0688357
178 1 0.5 0.8 0.05
186 1 0.7 0.8 0.05
191 2 0.65001 0.849982 0.0688449
199 2 0.850017 0.85 0.0688438
194 1 0.9 0.8 0.05
164 1 0 0.9 0.05
172 1 0.2 0.9 0.05
180 1 0.4 0.9 0.05
188 1 0.6 0.9 0.05
196 1 0.8 0.9 0.05
165 2 0.149982 0.949993 0.068846
173 2 0.349999 0.949996 0.0688432
181 2 0.549985 0.949995 0.0688365
189 2 0.750013 0.950003 0.068833
197 2 0.949986 0.949992 0.0688336
201 1 5.91061e-06 9.57576e-06 0.0877669
209 1 0.200001 -1.31009e-05 0.0877599
217 1 0.399986 1.65535e-05 0.0877653
225 1 0.599984 -1.51136e-05 0.0877597
233 1 0.800015 -7.39936e-06 0.0877522
203 1 0.100016 0.100003 0.0877543
211 1 0.300004 0.100006 0.0877623
219 1 0.500011 0.100018 0.0877525
227 1 0.700005 0.100012 0.087754
235 1 0.900011 0.100001 0.0877535
241 1 3.17706e-07 0.200011 0.0877621
249 1 0.200018 0.199983 0.0877597
257 1 0.400008 0.200002 0.0877685
265 1 0.599993 0.200014 0.087764
273 1 0.799988 0.200014 0.0877546
243 1 0.0999912 0.299982 0.0877678
251 1 0.299988 0.299993 0.0877519
259 1 0.500002 0.299983 0.0877572
267 1 0.700016 0.299995 0.0877624
275 1 0.900009 0.30001 0.0877654
281 1 3.10174e-07 0.399982 0.0877557
289 1 0.200002 0.399996 0.0877649
297 1 0.40001 0.400003 0.0877528
305 1 0.600006 0.39998 0.0877716
313 1 0.800007 0.399998 0.0877698
283 1 0.100001 0.500016 0.0877529
307 1 0.700009 0.500013 0.0877591
291 1 0.29998 0.499999 0.0877638
299 1 0.500017 0.500014 0.0877692
315 1 0.899991 0.499982 0.0877648
321 1 -8.30094e-06 0.600018 0.0877643
329 1 0.199989 0.59999 0.0877644
337 1 0.400013 0.600009 0.0877707
345 1 0.600019 0.599981 0.0877619
353 1 0.799983 0.599994 0.0877582
323 1 0.100001 0.699999 0.0877546
331 1 0.300009 0.699995 0.087752
339 1 0.499985 0.70002 0.0877693
347 1 0.700016 0.699992 0.0877705
355 1 0.899994 0.7 0.0877653
361 1 8.66699e-06 0.800003 0.0877625
369 1 0.20002 0.800018 0.0877598
377 1 0.399987 0.800011 0.0877621
385 1 0.599992 0.80001 0.0877692
393 1 0.799987 0.799997 0.0877657
363 1 0.0999928 0.899982 0.0877558
371 1 0.300002 0.899999 0.0877716
379 1 0.499999 0.899982 0.0877658
387 1 0.700013 0.900001 0.0877572
395 1 0.899986 0.899988 0.0877609
202 1 0.100004 4.788e-06 0.125583
208 2 0.149983 0.0500116 0.106661
216 2 0.350002 0.0500153 0.106664
210 1 0.299984 1.40657e-05 0.12558
224 2 0.549985 0.050012 0.106679
218 1 0.49999 2.49111e-06 0.125575
226 1 0.699997 -1.39875e-05 0.125571
232 2 0.750005 0.0500113 0.106671
234 1 0.900017 -1.8703e-05 0.125571
240 2 0.950002 0.0500124 0.106664
204 1 -1.45379e-05 0.1 0.125576
212 1 0.199994 0.100011 0.125586
220 1 0.399994 0.0999815 0.125569
228 1 0.59999 0.100006 0.125578
236 1 0.799993 0.0999944 0.125573
206 2 0.0500116 0.150005 0.106665
242 1 0.100018 0.199994 0.125578
214 2 0.25 0.150012 0.106669
250 1 0.300007 0.199995 0.125586
222 2 0.449993 0.149992 0.106661
258 1 0.499987 0.2 0.125578
230 2 0.650007 0.149996 0.106663
266 1 0.700004 0.200004 0.125568
238 2 0.849984 0.149992 0.106679
274 1 0.89998 0.199992 0.12558
248 2 0.149988 0.250013 0.106664
256 2 0.350005 0.249998 0.106668
264 2 0.55 0.25 0.106669
272 2 0.750005 0.249983 0.106668
280 2 0.950001 0.249985 0.106663
246 2 0.0500163 0.349987 0.106664
244 1 -1.47025e-06 0.299991 0.12557
252 1 0.200001 0.300017 0.125573
254 2 0.249989 0.350007 0.106663
260 1 0.400019 0.299982 0.125586
262 2 0.44999 0.350003 0.106677
268 1 0.599996 0.300015 0.125579
270 2 0.65001 0.350015 0.106671
278 2 0.849994 0.350016 0.106664
276 1 0.800003 0.300011 0.125581
282 1 0.10001 0.399984 0.125584
290 1 0.29999 0.39998 0.125581
298 1 0.500004 0.399991 0.125584
306 1 0.700003 0.399982 0.125575
314 1 0.89999 0.399994 0.125578
288 2 0.150013 0.44999 0.106676
296 2 0.349998 0.45 0.106678
304 2 0.55 0.449998 0.106667
312 2 0.750012 0.450001 0.106666
320 2 0.949992 0.450012 0.106674
286 2 0.0499987 0.549989 0.106662
284 1 -2.91906e-06 0.499993 0.125575
292 1 0.200015 0.49998 0.125573
294 2 0.249985 0.549997 0.10666
300 1 0.400008 0.500019 0.125575
302 2 0.45001 0.550014 0.106675
308 1 0.600006 0.499992 0.125575
310 2 0.649992 0.550003 0.106664
318 2 0.849993 0.550008 0.10666
316 1 0.799996 0.50001 0.125571
322 1 0.100013 0.600005 0.125586
330 1 0.300007 0.600019 0.125576
338 1 0.500011 0.599991 0.125569
346 1 0.700007 0.600017 0.125571
354 1 0.899982 0.59998 0.125586
324 1 2.00147e-05 0.699988 0.125576
328 2 0.150004 0.650012 0.106667
332 1 0.20001 0.700004 0.12558
336 2 0.349994 0.650009 0.106679
340 1 0.399986 0.699983 0.12558
344 2 0.549995 0.649985 0.106666
348 1 0.600001 0.699985 0.125579
352 2 0.749988 0.649993 0.106667
356 1 0.800014 0.700008 0.125587
360 2 0.949983 0.650008 0.106665
326 2 0.0499833 0.749992 0.106662
334 2 0.250011 0.750012 0.106673
342 2 0.450012 0.750006 0.106679
350 2 0.650017 0.749999 0.106677
358 2 0.850017 0.750005 0.106662
362 1 0.100007 0.800011 0.125579
368 2 0.150004 0.849995 0.106663
376 2 0.349987 0.850008 0.106675
370 1 0.299994 0.799995 0.12558
384 2 0.550019 0.850018 0.106664
378 1 0.500006 0.800004 0.125586
386 1 0.700019 0.799996 0.125584
392 2 0.750004 0.850014 0.106678
394 1 0.899989 0.799984 0.125579
400 2 0.950013 0.849989 0.106677
364 1 1.13025e-05 0.899998 0.125574
372 1 0.199983 0.9 0.125585
380 1 0.40002 0.899997 0.125579
388 1 0.600019 0.900002 0.125576
396 1 0.800007 0.899985 0.125585
366 2 0.0500006 0.950015 0.106666
374 2 0.249985 0.949985 0.106667
382 2 0.450003 0.950017 0.106661
390 2 0.649982 0.949996 0.106666
398 2 0.850012 0.95001 0.106667
207 2 0.0500061 0.0499978 0.144478
401 1 -1.09807e-05 -3.77382e-06 0.163398
409 1 0.19999 1.65734e-06 0.163399
215 2 0.250007 0.049988 0.144479
417 1 0.39999 -1.18315e-05 0.1634
223 2 0.450017 0.0499834 0.14448
425 1 0.599988 9.58884e-06 0.163387
231 2 0.649995 0.0500065 0.144487
239 2 0.850001 0.0499869 0.144475
433 1 0.799983 1.03496e-05 0.163387
403 1 0.100001 0.100007 0.163402
411 1 0.299981 0.0999913 0.163401
419 1 0.500007 0.0999986 0.163395
427 1 0.699981 0.100013 0.163388
435 1 0.899989 0.0999894 0.163392
441 1 -1.49443e-05 0.199982 0.163389
205 2 0.150012 0.150004 0.144486
449 1 0.199998 0.199998 0.1634
213 2 0.350009 0.149995 0.144491
457 1 0.399997 0.200019 0.163402
221 2 0.549981 0.150006 0.14449
465 1 0.599981 0.200016 0.163401
229 2 0.750001 0.149989 0.14448
473 1 0.799997 0.20001 0.163386
237 2 0.949988 0.149984 0.144488
247 2 0.0500151 0.250005 0.144488
255 2 0.249997 0.249988 0.144489
263 2 0.44999 0.249998 0.14448
271 2 0.650017 0.249986 0.144487
279 2 0.849985 0.250003 0.144478
443 1 0.0999891 0.300008 0.163396
245 2 0.14999 0.350015 0.144478
253 2 0.350015 0.349988 0.144492
451 1 0.300002 0.299981 0.163394
261 2 0.550001 0.349992 0.144481
459 1 0.499999 0.300001 0.163385
467 1 0.699997 0.299983 0.163397
269 2 0.750007 0.350004 0.144476
475 1 0.899997 0.299984 0.163396
277 2 0.950004 0.35 0.144482
481 1 1.62949e-05 0.399998 0.163388
489 1 0.199981 0.399988 0.1634
497 1 0.399995 0.400016 0.163402
505 1 0.600001 0.400003 0.163395
513 1 0.800003 0.399995 0.163386
287 2 0.0500011 0.449999 0.144485
295 2 0.249983 0.450018 0.144492
303 2 0.450009 0.450002 0.144483
311 2 0.649988 0.449999 0.14448
319 2 0.849993 0.450001 0.144489
483 1 0.0999871 0.500016 0.1634
285 2 0.149984 0.549997 0.144493
293 2 0.350019 0.550017 0.144481
491 1 0.300003 0.499998 0.163392
301 2 0.549998 0.55 0.14449
499 1 0.50002 0.499988 0.163397
507 1 0.699985 0.500011 0.163384
309 2 0.749996 0.549988 0.144494
515 1 0.899987 0.499985 0.163396
317 2 0.950019 0.549986 0.144489
521 1 1.65122e-05 0.599984 0.163391
529 1 0.200002 0.599993 0.163402
537 1 0.399985 0.599997 0.163387
545 1 0.600005 0.59999 0.163383
553 1 0.799994 0.600007 0.163392
327 2 0.0499968 0.65 0.144476
523 1 0.100019 0.700015 0.163389
335 2 0.250011 0.649985 0.144493
531 1 0.299985 0.69998 0.163399
343 2 0.450009 0.649989 0.144475
539 1 0.500017 0.700018 0.163398
351 2 0.649983 0.65001 0.144489
547 1 0.699995 0.700016 0.163389
359 2 0.850008 0.649988 0.144484
555 1 0.900012 0.700013 0.163387
325 2 0.150006 0.750009 0.144479
333 2 0.350007 0.749982 0.144483
341 2 0.549999 0.749986 0.144488
349 2 0.750009 0.750007 0.144493
357 2 0.950009 0.749986 0.144476
367 2 0.0500114 0.849984 0.14448
561 1 1.89932e-05 0.800003 0.163385
569 1 0.199994 0.79999 0.1634
375 2 0.249987 0.849988 0.144478
577 1 0.400012 0.800003 0.163392
383 2 0.449991 0.849999 0.144484
585 1 0.600004 0.800018 0.163401
391 2 0.650018 0.850005 0.14449
399 2 0.850016 0.849984 0.144494
593 1 0.80002 0.800014 0.163399
563 1 0.100019 0.899984 0.163393
571 1 0.299982 0.899994 0.16339
579 1 0.500003 0.89999 0.163386
587 1 0.700002 0.900003 0.163402
595 1 0.900017 0.900018 0.163401
365 2 0.150004 0.949996 0.14448
373 2 0.349988 0.950008 0.144485
381 2 0.549995 0.94999 0.144479
389 2 0.749984 0.95001 0.144491
397 2 0.949983 0.949983 0.144487
402 1 0.0999875 -1.55964e-05 0.201202
408 2 0.150001 0.0500103 0.182307
416 2 0.349985 0.0500038 0.182305
410 1 0.30001 1.47026e-05 0.201211
424 2 0.550014 0.0499836 0.1823
418 1 0.500016 -1.58855e-05 0.201209
426 1 0.699984 1.03499e-06 0.201201
432 2 0.750007 0.0500141 0.182298
434 1 0.899983 -1.54906e-05 0.201202
440 2 0.949987 0.0499828 0.182308
404 1 -1.70661e-05 0.100008 0.201201
412 1 0.200011 0.100008 0.201216
420 1 0.400013 0.100016 0.201209
428 1 0.600005 0.10002 0.201201
436 1 0.799992 0.1 0.201212
406 2 0.0499988 0.149989 0.182299
442 1 0.0999848 0.200017 0.201216
414 2 0.249992 0.150016 0.182303
450 1 0.300007 0.20001 0.201208
422 2 0.449985 0.149991 0.182297
458 1 0.49999 0.200006 0.20121
430 2 0.649989 0.150018 0.182295
466 1 0.699999 0.199981 0.201207
438 2 0.850017 0.150002 0.182308
474 1 0.899999 0.19999 0.201217
448 2 0.150005 0.249993 0.182291
456 2 0.349997 0.249996 0.182308
464 2 0.55 0.249999 0.182303
472 2 0.75001 0.250002 0.182294
480 2 0.950018 0.250017 0.182297
446 2 0.0500108 0.349983 0.182294
444 1 -6.04097e-06 0.300009 0.201204
452 1 0.200006 0.300014 0.201217
454 2 0.249989 0.349996 0.182293
460 1 0.40002 0.299993 0.201202
462 2 0.449996 0.350013 0.182303
468 1 0.599983 0.300004 0.201213
470 2 0.650013 0.349984 0.182302
478 2 0.849997 0.350013 0.182293
476 1 0.800001 0.299984 0.201211
482 1 0.100011 0.399993 0.2012
490 1 0.300005 0.400012 0.201205
498 1 0.499994 0.400016 0.201216
506 1 0.699983 0.399986 0.201207
514 1 0.899991 0.400009 0.201208
488 2 0.149995 0.45001 0.182306
496 2 0.349991 0.449996 0.182302
504 2 0.549985 0.449981 0.182308
512 2 0.75 0.449995 0.182306
520 2 0.950008 0.450004 0.182292
486 2 0.0500037 0.550002 0.182299
484 1 2.33444e-06 0.499989 0.201212
492 1 0.199994 0.499984 0.2012
494 2 0.249983 0.550015 0.1823
500 1 0.399994 0.499997 0.201208
502 2 0.449988 0.550015 0.182302
508 1 0.599999 0.49998 0.201199
510 2 0.649985 0.549985 0.182308
518 2 0.84999 0.550005 0.182309
516 1 0.80002 0.499984 0.201202
522 1 0.100008 0.600003 0.201216
530 1 0.299995 0.599996 0.201208
538 1 0.499989 0.599985 0.201212
546 1 0.700012 0.600001 0.201204
554 1 0.90001 0.600016 0.20121
524 1 4.15707e-06 0.700003 0.20121
528 2 0.149999 0.649989 0.182299
532 1 0.199984 0.699983 0.201207
536 2 0.350008 0.649997 0.182293
540 1 0.399998 0.7 0.201209
544 2 0.550018 0.650016 0.182297
548 1 0.599994 0.699989 0.20121
552 2 0.750014 0.650008 0.182293
556 1 0.79998 0.700017 0.201211
560 2 0.950014 0.649982 0.182302
526 2 0.0499926 0.750003 0.1823
534 2 0.249986 0.749993 0.182306
542 2 0.449985 0.750014 0.182309
550 2 0.650017 0.749982 0.182299
558 2 0.850006 0.749991 0.182294
562 1 0.100004 0.79999 0.201213
568 2 0.150004 0.850016 0.182302
576 2 0.349997 0.850001 0.182307
570 1 0.299991 0.799985 0.201209
584 2 0.550012 0.849992 0.182298
578 1 0.500007 0.799992 0.2012
586 1 0.700007 0.8 0.201206
592 2 0.750009 0.849997 0.182293
594 1 0.90001 0.799986 0.201205
600 2 0.949998 0.850012 0.182294
564 1 8.48436e-06 0.899997 0.201207
572 1 0.199994 0.899983 0.201209
580 1 0.40002 0.900008 0.201202
588 1 0.600006 0.900007 0.201209
596 1 0.80002 0.899993 0.201199
566 2 0.0499984 0.949992 0.182304
574 2 0.250018 0.949989 0.182295
582 2 0.450003 0.949983 0.182294
590 2 0.65 0.949982 0.1823
598 2 0.849996 0.950007 0.182296
407 2 0.0499949 0.0500104 0.220119
601 1 -6.84216e-06 1.42115e-05 0.239028
609 1 0.199986 -2.02867e-06 0.23903
415 2 0.249984 0.0499952 0.220121
617 1 0.399998 -2.00833e-05 0.239015
423 2 0.450007 0.0500119 0.220123
625 1 0.6 1.20708e-05 0.239019
431 2 0.649995 0.0499964 0.220125
439 2 0.850011 0.0499936 0.220118
633 1 0.79999 -1.54082e-05 0.239028
603 1 0.100016 0.100014 0.239024
611 1 0.299981 0.100001 0.239032
619 1 0.49998 0.0999806 0.239015
627 1 0.699982 0.0999811 0.239029
635 1 0.900016 0.100012 0.239028
641 1 -7.2715e-06 0.200001 0.239031
405 2 0.149999 0.149994 0.220112
649 1 0.200004 0.200008 0.239018
413 2 0.350008 0.150005 0.220113
657 1 0.40002 0.200014 0.239017
421 2 0.549986 0.150004 0.220111
665 1 0.599996 0.200017 0.239016
429 2 0.750016 0.149991 0.220117
673 1 0.800019 0.200013 0.23903
437 2 0.950001 0.150001 0.220125
447 2 0.0500035 0.24999 0.220118
455 2 0.250017 0.249994 0.22011
463 2 0.449992 0.249982 0.220121
471 2 0.649983 0.249985 0.220112
479 2 0.850003 0.25001 0.22011
643 1 0.10002 0.3 0.239018
445 2 0.149997 0.350013 0.22011
453 2 0.349998 0.35001 0.22012
651 1 0.299991 0.299998 0.239023
461 2 0.549996 0.35001 0.220109
659 1 0.499998 0.299992 0.239016
667 1 0.700008 0.299999 0.239026
469 2 0.75 0.350016 0.220112
675 1 0.900002 0.299981 0.239029
477 2 0.949997 0.349984 0.220118
681 1 8.83807e-06 0.400007 0.239033
689 1 0.200002 0.399982 0.239014
697 1 0.4 0.400003 0.239018
705 1 0.600014 0.399994 0.239031
713 1 0.800007 0.400019 0.239021
487 2 0.0499916 0.449994 0.220125
495 2 0.249982 0.449991 0.220107
503 2 0.450012 0.450007 0.220107
511 2 0.650013 0.450019 0.220121
519 2 0.850013 0.449997 0.220123
683 1 0.100002 0.499983 0.239028
485 2 0.149991 0.55001 0.220122
493 2 0.350006 0.550007 0.220119
691 1 0.299991 0.499997 0.239022
501 2 0.550004 0.549986 0.220122
699 1 0.499992 0.499995 0.239029
707 1 0.700008 0.499997 0.239023
509 2 0.750009 0.549992 0.220112
715 1 0.900012 0.5 0.239021
517 2 0.949993 0.550013 0.220123
721 1 1.67571e-05 0.599999 0.239017
729 1 0.199988 0.600011 0.239019
737 1 0.4 0.599996 0.239014
745 1 0.600001 0.600017 0.239027
753 1 0.800013 0.600009 0.239025
527 2 0.0500111 0.649986 0.220123
723 1 0.0999952 0.7 0.239027
535 2 0.249984 0.650007 0.220123
731 1 0.300019 0.699995 0.239019
543 2 0.450019 0.650005 0.220117
739 1 0.500003 0.700019 0.239027
551 2 0.650017 0.649993 0.220117
747 1 0.699987 0.700008 0.239014
559 2 0.849994 0.649999 0.220109
755 1 0.900001 0.69998 0.239026
525 2 0.149988 0.749998 0.220125
533 2 0.350005 0.750019 0.220107
541 2 0.549991 0.750002 0.220122
549 2 0.749994 0.749993 0.220117
557 2 0.949982 0.750018 0.220117
567 2 0.0500044 0.850013 0.220119
761 1 1.44255e-05 0.800016 0.239033
769 1 0.199995 0.799987 0.239023
575 2 0.249996 0.849992 0.220111
777 1 0.400012 0.800014 0.239022
583 2 0.450019 0.849989 0.220107
785 1 0.599998 0.800006 0.239024
591 2 0.649997 0.849995 0.220116
599 2 0.84999 0.850012 0.220113
793 1 0.800004 0.8 0.23902
763 1 0.100011 0.900014 0.23903
771 1 0.300008 0.900017 0.239018
779 1 0.500019 0.899997 0.239019
787 1 0.700001 0.899983 0.239028
795 1 0.899982 0.899982 0.239017
565 2 0.150015 0.950001 0.220122
573 2 0.350008 0.950004 0.22012
581 2 0.549999 0.949992 0.220124
589 2 0.74999 0.949987 0.220112
597 2 0.950015 0.950018 0.220118
608 2 0.149987 0.0500178 0.257939
616 2 0.350001 0.0500012 0.257922
624 2 0.549988 0.0499856 0.257938
632 2 0.750002 0.0499944 0.257929
640 2 0.950012 0.0499897 0.257939
606 2 0.0499911 0.149987 0.257937
614 2 0.250017 0.150012 0.257925
622 2 0.450011 0.150009 0.257939
630 2 0.649982 0.149994 0.257922
638 2 0.849997 0.14999 0.257934
648 2 0.149985 0.249991 0.257941
656 2 0.350007 0.249989 0.257934
664 2 0.549984 0.250003 0.25794
672 2 0.749997 0.249986 0.257936
680 2 0.950012 0.25001 0.257932
646 2 0.0499972 0.349998 0.257938
654 2 0.249986 0.349988 0.257922
662 2 0.449988 0.349992 0.257939
670 2 0.650005 0.349985 0.257928
678 2 0.850004 0.349999 0.257926
688 2 0.149985 0.450002 0.257937
696 2 0.350015 0.449998 0.257925
704 2 0.550008 0.449983 0.257929
712 2 0.749985 0.449991 0.257927
720 2 0.949997 0.449994 0.257924
686 2 0.0499837 0.54999 0.257939
694 2 0.250013 0.549999 0.257929
702 2 0.450012 0.55001 0.257924
710 2 0.650002 0.549998 0.25793
718 2 0.850002 0.549994 0.257927
728 2 0.149994 0.649996 0.257935
736 2 0.350009 0.650011 0.257925
744 2 0.549987 0.650004 0.257927
752 2 0.749997 0.65001 0.257931
760 2 0.950004 0.650011 0.257927
726 2 0.0499939 0.750012 0.257927
734 2 0.249985 0.749992 0.25794
742 2 0.449991 0.749986 0.257935
750 2 0.649984 0.749991 0.257934
758 2 0.849996 0.749998 0.257929
768 2 0.150005 0.850011 0.257925
776 2 0.350007 0.850007 0.257936
784 2 0.550013 0.850009 0.25794
792 2 0.750003 0.849992 0.257934
800 2 0.949986 0.850012 0.257931
766 2 0.0500141 0.950001 0.257939
774 2 0.249992 0.949997 0.25794
782 2 0.450018 0.950001 0.257932
790 2 0.649981 0.949987 0.257934
798 2 0.850002 0.949989 0.257934
607 2 0.0500114 0.0499911 0.295745
602 1 0.0999865 -6.66823e-06 0.27683
615 2 0.249999 0.0499969 0.295751
610 1 0.300002 3.9353e-06 0.276834
623 2 0.44999 0.049993 0.295745
618 1 0.500018 1.19273e-05 0.276832
626 1 0.700002 -5.45981e-06 0.276839
631 2 0.650007 0.0500185 0.295752
639 2 0.849993 0.0500186 0.295755
634 1 0.899987 1.64443e-05 0.276847
604 1 -4.80982e-06 0.0999989 0.276829
612 1 0.2 0.0999847 0.276845
620 1 0.399992 0.100005 0.276838
628 1 0.600009 0.0999816 0.276846
636 1 0.800011 0.0999936 0.276835
642 1 0.0999904 0.199995 0.276841
605 2 0.149982 0.149988 0.29574
613 2 0.349991 0.150001 0.295747
650 1 0.299983 0.2 0.276845
621 2 0.549983 0.150004 0.295744
658 1 0.499995 0.200009 0.276832
666 1 0.700008 0.200011 0.276841
629 2 0.749995 0.149988 0.295752
674 1 0.900019 0.200001 0.276831
637 2 0.949984 0.150014 0.295748
647 2 0.0499963 0.249992 0.29574
655 2 0.25 0.250001 0.295746
663 2 0.450011 0.249983 0.295739
671 2 0.650002 0.250003 0.295754
679 2 0.850002 0.249993 0.29574
644 1 1.58782e-05 0.299999 0.276834
645 2 0.150004 0.349993 0.295744
652 1 0.200013 0.300006 0.27683
653 2 0.34999 0.350011 0.295748
660 1 0.399989 0.300008 0.276835
661 2 0.550011 0.350018 0.295739
668 1 0.59998 0.300014 0.276834
669 2 0.749993 0.349985 0.295753
676 1 0.799982 0.300014 0.276836
677 2 0.950002 0.350009 0.295743
682 1 0.100003 0.400011 0.276849
690 1 0.300007 0.400014 0.276842
698 1 0.499996 0.399993 0.276845
706 1 0.699993 0.4 0.276839
714 1 0.899995 0.399995 0.276836
687 2 0.0499935 0.450014 0.295741
695 2 0.250016 0.449995 0.295748
703 2 0.450011 0.450007 0.295755
711 2 0.64999 0.450016 0.295748
719 2 0.85001 0.450011 0.295756
684 1 -1.67893e-05 0.500001 0.276841
685 2 0.150016 0.54999 0.295739
692 1 0.200005 0.500005 0.276845
693 2 0.350008 0.549986 0.29574
700 1 0.400005 0.500016 0.276834
701 2 0.549995 0.550002 0.295755
708 1 0.600014 0.500007 0.276848
709 2 0.749992 0.549992 0.295748
716 1 0.800012 0.49999 0.276842
717 2 0.950002 0.550004 0.295751
722 1 0.0999818 0.600002 0.276843
730 1 0.299994 0.599985 0.276839
738 1 0.499986 0.600012 0.27683
746 1 0.70001 0.600017 0.276844
754 1 0.899999 0.599982 0.276845
724 1 -1.48225e-05 0.700002 0.276837
727 2 0.0499882 0.650018 0.295743
732 1 0.200007 0.700002 0.276843
735 2 0.249998 0.650002 0.29574
740 1 0.400013 0.700005 0.276837
743 2 0.450014 0.650015 0.295747
748 1 0.600011 0.700006 0.276844
751 2 0.649986 0.65 0.295756
756 1 0.799988 0.700008 0.276834
759 2 0.849996 0.649999 0.295741
725 2 0.150002 0.749997 0.295749
733 2 0.35001 0.749991 0.295755
741 2 0.550004 0.750006 0.295755
749 2 0.749985 0.749996 0.295751
757 2 0.949986 0.750002 0.295749
767 2 0.0499954 0.849983 0.295742
762 1 0.100012 0.799989 0.276848
775 2 0.24999 0.850018 0.295742
770 1 0.300003 0.800001 0.276833
783 2 0.45001 0.849986 0.295744
778 1 0.500014 0.799981 0.276831
786 1 0.69999 0.799988 0.276835
791 2 0.650007 0.850011 0.29575
799 2 0.849985 0.850013 0.295744
794 1 0.899981 0.8 0.276839
764 1 -5.22239e-06 0.899997 0.276844
772 1 0.19998 0.90001 0.276842
780 1 0.399993 0.899987 0.276848
788 1 0.599985 0.90002 0.276847
796 1 0.800007 0.900018 0.27683
765 2 0.150012 0.949987 0.295746
773 2 0.349983 0.949986 0.295742
781 2 0.550015 0.950004 0.295742
789 2 0.749995 0.949988 0.295742
797 2 0.950013 0.950013 0.295753
801 1 -1.95628e-05 -8.24054e-07 0.314647
809 1 0.199981 -1.64982e-05 0.314645
808 2 0.149997 0.049994 0.333564
816 2 0.349992 0.0500026 0.333555
817 1 0.399988 2.68904e-07 0.314658
824 2 0.549995 0.0499875 0.333558
825 1 0.599998 -9.23575e-06 0.314659
832 2 0.749984 0.0499875 0.33356
833 1 0.80001 1.37393e-05 0.314649
840 2 0.950003 0.0500007 0.333555
803 1 0.100006 0.100011 0.314653
811 1 0.300017 0.099982 0.314645
819 1 0.499986 0.099993 0.314652
827 1 0.700011 0.100009 0.314649
835 1 0.899997 0.0999972 0.314651
841 1 -4.34469e-07 0.199999 0.314661
806 2 0.0499952 0.15 0.333565
849 1 0.199983 0.199987 0.314664
814 2 0.249986 0.149985 0.333554
857 1 0.399998 0.200009 0.31465
822 2 0.449985 0.149982 0.333567
865 1 0.599998 0.200007 0.314652
830 2 0.649986 0.149994 0.333558
873 1 0.800008 0.199996 0.314647
838 2 0.849982 0.150003 0.333554
848 2 0.150002 0.250016 0.333566
856 2 0.349987 0.250007 0.333564
864 2 0.549991 0.249989 0.333554
872 2 0.749998 0.24999 0.333554
880 2 0.950019 0.250002 0.333563
846 2 0.0500157 0.350018 0.333553
843 1 0.0999911 0.300018 0.314651
854 2 0.250001 0.350012 0.333561
851 1 0.300008 0.299991 0.314664
862 2 0.449984 0.349984 0.33357
859 1 0.500017 0.29998 0.314662
867 1 0.699982 0.29999 0.314655
870 2 0.65 0.349982 0.333562
878 2 0.849999 0.350007 0.333566
875 1 0.899993 0.300015 0.314662
881 1 1.74726e-05 0.4 0.31465
889 1 0.199987 0.400015 0.314646
897 1 0.399985 0.39999 0.314645
905 1 0.600012 0.400017 0.314648
913 1 0.800015 0.399988 0.314654
888 2 0.150007 0.450017 0.333565
896 2 0.349991 0.449994 0.333568
904 2 0.549988 0.450013 0.333563
912 2 0.750014 0.449995 0.333568
920 2 0.949997 0.450016 0.333562
886 2 0.0499955 0.550009 0.333556
883 1 0.0999916 0.49998 0.314662
894 2 0.250011 0.549997 0.333554
891 1 0.299988 0.500015 0.314661
902 2 0.450018 0.54999 0.333566
899 1 0.500016 0.499995 0.314662
907 1 0.700001 0.499992 0.31466
910 2 0.649999 0.550014 0.333553
918 2 0.850005 0.549997 0.333565
915 1 0.899983 0.499996 0.314647
921 1 9.36099e-06 0.600002 0.314664
929 1 0.200016 0.599997 0.314652
937 1 0.400001 0.599981 0.314657
945 1 0.599992 0.599992 0.314665
953 1 0.800011 0.599987 0.31465
923 1 0.0999819 0.700006 0.314646
928 2 0.149998 0.650009 0.333554
931 1 0.299999 0.700011 0.314662
936 2 0.35 0.649982 0.333557
939 1 0.499989 0.700005 0.314648
944 2 0.550003 0.650011 0.333569
947 1 0.700007 0.699987 0.314664
952 2 0.749991 0.650005 0.333557
955 1 0.899991 0.699989 0.314659
960 2 0.95 0.649985 0.333556
926 2 0.0500082 0.750008 0.333557
934 2 0.250013 0.750006 0.333563
942 2 0.450016 0.750015 0.333555
950 2 0.649985 0.750014 0.333559
958 2 0.849983 0.750007 0.333567
961 1 1.71914e-07 0.799994 0.314659
969 1 0.19999 0.800018 0.314658
968 2 0.150008 0.850016 0.333559
976 2 0.349999 0.850007 0.333571
977 1 0.399989 0.8 0.314662
984 2 0.54999 0.850015 0.333564
985 1 0.600008 0.79999 0.314652
992 2 0.749997 0.850006 0.333565
993 1 0.79999 0.799988 0.314658
1000 2 0.949994 0.850014 0.333565
963 1 0.0999837 0.899988 0.314663
971 1 0.300009 0.899993 0.31466
979 1 0.500014 0.899985 0.314654
987 1 0.699995 0.899988 0.314654
995 1 0.899993 0.899986 0.314646
966 2 0.0500109 0.950007 0.333563
974 2 0.250007 0.950009 0.333564
982 2 0.450002 0.950013 0.33357
990 2 0.650011 0.950018 0.333554
998 2 0.850011 0.949995 0.33357
807 2 0.049999 0.0499821 0.371377
802 1 0.100007 1.63718e-05 0.352477
815 2 0.250005 0.0499829 0.371381
810 1 0.300005 -1.76767e-05 0.352469
823 2 0.449986 0.0499969 0.371378
818 1 0.500004 1.0561e-05 0.352478
826 1 0.700005 3.14695e-06 0.352467
831 2 0.64999 0.0500139 0.371385
839 2 0.849999 0.0500049 0.371372
834 1 0.899986 7.7601e-06 0.352473
804 1 8.79619e-06 0.0999831 0.352472
812 1 0.199984 0.100009 0.352469
820 1 0.40001 0.0999921 0.352475
828 1 0.60001 0.100001 0.352473
836 1 0.79998 0.100001 0.35246
842 1 0.100014 0.200009 0.352469
805 2 0.150007 0.149988 0.371381
813 2 0.349994 0.150007 0.37138
850 1 0.299985 0.199998 0.352463
821 2 0.549994 0.149991 0.371369
858 1 0.500016 0.200018 0.352478
866 1 0.699985 0.200016 0.352465
829 2 0.749984 0.149992 0.371381
874 1 0.900017 0.199984 0.352468
837 2 0.949997 0.150015 0.371382
847 2 0.0499845 0.249998 0.371385
855 2 0.250014 0.249997 0.371386
863 2 0.450005 0.250012 0.371381
871 2 0.650014 0.249991 0.37138
879 2 0.849991 0.250007 0.371372
844 1 -1.1478e-05 0.299984 0.35247
845 2 0.149999 0.349984 0.37138
852 1 0.200001 0.3 0.352468
853 2 0.350001 0.349993 0.371373
860 1 0.399988 0.29999 0.352475
861 2 0.550019 0.350018 0.371377
868 1 0.599992 0.300009 0.352474
869 2 0.749994 0.350003 0.371373
876 1 0.800017 0.299993 0.352466
877 2 0.949988 0.349995 0.371378
882 1 0.0999988 0.400005 0.352479
890 1 0.300002 0.400002 0.352474
898 1 0.500004 0.39999 0.352476
906 1 0.699982 0.400004 0.352466
914 1 0.899983 0.399985 0.352473
887 2 0.0499816 0.449991 0.371387
895 2 0.250009 0.449991 0.371377
903 2 0.449988 0.450018 0.37138
911 2 0.650009 0.450013 0.371387
919 2 0.850015 0.449987 0.371369
884 1 5.06347e-06 0.49998 0.352475
885 2 0.150015 0.549988 0.371369
892 1 0.200002 0.500014 0.352467
893 2 0.350009 0.549989 0.371386
900 1 0.399983 0.500019 0.352479
901 2 0.549983 0.550014 0.37138
908 1 0.600011 0.499983 0.352466
909 2 0.749985 0.549983 0.371375
916 1 0.800017 0.499997 0.35247
917 2 0.950007 0.550013 0.37138
922 1 0.0999875 0.600018 0.352471
930 1 0.300002 0.599983 0.352474
938 1 0.499984 0.59998 0.352474
946 1 0.700001 0.600005 0.352478
954 1 0.900015 0.599984 0.352468
924 1 -1.05302e-05 0.699993 0.352478
927 2 0.0499948 0.650005 0.371384