ITEM: TIMESTEP
400
ITEM: NUMBER OF ATOMS
1250
ITEM: BOX BOUNDS pp pp pp
0.0000000000000000e+00 3.8500000000000000e+01
0.0000000000000000e+00 3.8500000000000000e+01
-1.5400000000000000e+01 6.1600000000000001e+01
ITEM: ATOMS id type xs ys zs
1 1 0 0 0
8 2 0.15 0.05 0.025
9 1 0.2 0 0
16 2 0.35 0.05 0.025
17 1 0.4 0 0
24 2 0.55 0.05 0.025
25 1 0.6 0 0
32 2 0.75 0.05 0.025
33 1 0.8 0 0
40 2 0.95 0.05 0.025
3 1 0.1 0.1 0
11 1 0.3 0.1 0
19 1 0.5 0.1 0
27 1 0.7 0.1 0
35 1 0.9 0.1 0
6 2 0.05 0.15 0.025
41 1 0 0.2 0
49 1 0.2 0.2 0
14 2 0.25 0.15 0.025
57 1 0.4 0.2 0
22 2 0.45 0.15 0.025
65 1 0.6 0.2 0
30 2 0.65 0.15 0.025
38 2 0.85 0.15 0.025
73 1 0.8 0.2 0
48 2 0.15 0.25 0.025
56 2 0.35 0.25 0.025
64 2 0.55 0.25 0.025
72 2 0.75 0.25 0.025
80 2 0.95 0.25 0.025
46 2 0.05 0.35 0.025
43 1 0.1 0.3 0
54 2 0.25 0.35 0.025
51 1 0.3 0.3 0
62 2 0.45 0.35 0.025
59 1 0.5 0.3 0
67 1 0.7 0.3 0
70 2 0.65 0.35 0.025
78 2 0.85 0.35 0.025
75 1 0.9 0.3 0
81 1 0 0.4 0
89 1 0.2 0.4 0
97 1 0.4 0.4 0
105 1 0.6 0.4 0
113 1 0.8 0.4 0
88 2 0.15 0.45 0.025
96 2 0.35 0.45 0.025
104 2 0.55 0.45 0.025
112 2 0.75 0.45 0.025
120 2 0.95 0.45 0.025
86 2 0.05 0.55 0.025
83 1 0.1 0.5 0
94 2 0.25 0.55 0.025
91 1 0.3 0.5 0
102 2 0.45 0.55 0.025
99 1 0.5 0.5 0
107 1 0.7 0.5 0
110 2 0.65 0.55 0.025
118 2 0.85 0.55 0.025
115 1 0.9 0.5 0
121 1 0 0.6 0
129 1 0.2 0.6 0
137 1 0.4 0.6 0
145 1 0.6 0.6 0
153 1 0.8 0.6 0
123 1 0.1 0.7 0
128 2 0.15 0.65 0.025
131 1 0.3 0.7 0
136 2 0.35 0.65 0.025
139 1 0.5 0.7 0
144 2 0.55 0.65 0.025
147 1 0.7 0.7 0
152 2 0.75 0.65 0.025
155 1 0.9 0.7 0
160 2 0.95 0.65 0.025
126 2 0.05 0.75 0.025
134 2 0.25 0.75 0.025
142 2 0.45 0.75 0.025
150 2 0.65 0.75 0.025
158 2 0.85 0.75 0.025
161 1 0 0.8 0
168 2 0.15 0.85 0.025
169 1 0.2 0.8 0
176 2 0.35 0.85 0.025
177 1 0.4 0.8 0
184 2 0.55 0.85 0.025
185 1 0.6 0.8 0
192 2 0.75 0.85 0.025
193 1 0.8 0.8 0
200 2 0.95 0.85 0.025
163 1 0.1 0.9 0
171 1 0.3 0.9 0
179 1 0.5 0.9 0
187 1 0.7 0.9 0
195 1 0.9 0.9 0
166 2 0.05 0.95 0.025
174 2 0.25 0.95 0.025
182 2 0.45 0.95 0.025
190 2 0.65 0.95 0.025
198 2 0.85 0.95 0.025
7 2 0.0500056 0.0500469 0.0680822
2 1 0.1 0 0.05
15 2 0.249968 0.050002 0.0681002
10 1 0.3 0 0.05
23 2 0.450029 0.0500152 0.0681042
18 1 0.5 0 0.05
26 1 0.7 0 0.05
31 2 0.650023 0.050003 0.0680811
39 2 0.850036 0.0500102 0.0680881
34 1 0.9 0 0.05
4 1 0 0.1 0.05
12 1 0.2 0.1 0.05
20 1 0.4 0.1 0.05
28 1 0.6 0.1 0.05
36 1 0.8 0.1 0.05
42 1 0.1 0.2 0.05
5 2 0.149961 0.15001 0.0680629
50 1 0.3 0.2 0.05
13 2 0.349976 0.15002 0.0681051
58 1 0.5 0.2 0.05
21 2 0.550012 0.150025 0.0680626
66 1 0.7 0.2 0.05
29 2 0.750047 0.149967 0.0680683
74 1 0.9 0.2 0.05
37 2 0.950018 0.149948 0.0681058
47 2 0.0499573 0.250038 0.0680522
55 2 0.249986 0.250044 0.0681082
63 2 0.44999 0.249975 0.0680898
71 2 0.650048 0.249944 0.0680756
79 2 0.84996 0.250041 0.0680703
44 1 0 0.3 0.05
52 1 0.2 0.3 0.05
45 2 0.149944 0.350048 0.0680622
53 2 0.349977 0.349998 0.0680639
60 1 0.4 0.3 0.05
61 2 0.550053 0.349998 0.0680794
68 1 0.6 0.3 0.05
69 2 0.750012 0.349944 0.0680754
76 1 0.8 0.3 0.05
77 2 0.949998 0.350033 0.0680991
82 1 0.1 0.4 0.05
90 1 0.3 0.4 0.05
98 1 0.5 0.4 0.05
106 1 0.7 0.4 0.05
114 1 0.9 0.4 0.05
87 2 0.0499584 0.449961 0.0680742
95 2 0.250041 0.450024 0.0680941
103 2 0.44997 0.449994 0.0680561
111 2 0.65002 0.449942 0.0680797
119 2 0.850015 0.449939 0.0680637
84 1 0 0.5 0.05
92 1 0.2 0.5 0.05
85 2 0.149945 0.549983 0.0680806
93 2 0.349985 0.550037 0.0680871
100 1 0.4 0.5 0.05
101 2 0.550017 0.550057 0.0681049
108 1 0.6 0.5 0.05
109 2 0.750047 0.549955 0.0681033
116 1 0.8 0.5 0.05
117 2 0.950007 0.550055 0.0680661
122 1 0.1 0.6 0.05
130 1 0.3 0.6 0.05
138 1 0.5 0.6 0.05
146 1 0.7 0.6 0.05
154 1 0.9 0.6 0.05
124 1 0 0.7 0.05
127 2 0.0500578 0.650042 0.0680581
132 1 0.2 0.7 0.05
135 2 0.249972 0.649987 0.068092
140 1 0.4 0.7 0.05
143 2 0.450007 0.650044 0.0680625
148 1 0.6 0.7 0.05
151 2 0.649956 0.650007 0.0680567
156 1 0.8 0.7 0.05
159 2 0.850014 0.650031 0.0680975
125 2 0.15006 0.750005 0.0681045
133 2 0.350007 0.749963 0.0680689
141 2 0.549964 0.750034 0.0681007
149 2 0.749987 0.750011 0.0680754
157 2 0.950004 0.750039 0.0680781
167 2 0.0499988 0.850058 0.0680613
162 1 0.1 0.8 0.05
175 2 0.250036 0.849992 0.0680985
170 1 0.3 0.8 0.05
183 2 0.450039 0.850053 0.0680722
178 1 0.5 0.8 0.05
186 1 0.7 0.8 0.05
191 2 0.650033 0.849944 0.0681018
199 2 0.850053 0.849999 0.0680984
194 1 0.9 0.8 0.05
164 1 0 0.9 0.05
172 1 0.2 0.9 0.05
180 1 0.4 0.9 0.05
188 1 0.6 0.9 0.05
196 1 0.8 0.9 0.05
165 2 0.149943 0.949978 0.0681052
173 2 0.349997 0.949989 0.0680965
181 2 0.549952 0.949984 0.0680749
189 2 0.750042 0.95001 0.0680637
197 2 0.949957 0.949975 0.068066
201 1 1.83453e-05 3.06283e-05 0.0862412
217 1 0.399954 5.29647e-05 0.0862363
225 1 0.599947 -4.73825e-05 0.0862187
233 1 0.800048 -2.30684e-05 0.0861946
203 1 0.100049 0.100009 0.0862012
211 1 0.300011 0.100021 0.086227
219 1 0.500034 0.100057 0.0861954
227 1 0.700015 0.100039 0.0862002
235 1 0.900036 0.100002 0.0861991
249 1 0.200057 0.199947 0.0862186
257 1 0.400024 0.200007 0.0862467
265 1 0.599979 0.200045 0.0862324
273 1 0.799962 0.200043 0.0862022
241 1 1 0.200034 0.086226
243 1 0.0999718 0.299943 0.0862438
251 1 0.299963 0.299979 0.086194
259 1 0.500005 0.299948 0.0862108
267 1 0.700049 0.299985 0.0862275
275 1 0.900029 0.300032 0.0862368
289 1 0.200007 0.399988 0.0862348
297 1 0.400032 0.400008 0.0861965
305 1 0.600019 0.399937 0.0862566
313 1 0.800022 0.399993 0.0862506
281 1 1 0.399943 0.0862062
283 1 0.100004 0.50005 0.086197
291 1 0.299938 0.499997 0.0862318
299 1 0.500053 0.500045 0.086249
307 1 0.70003 0.500039 0.0862168
315 1 0.89997 0.499942 0.0862346
329 1 0.199963 0.599969 0.0862335
337 1 0.400041 0.60003 0.0862538
345 1 0.600061 0.59994 0.0862255
353 1 0.799945 0.599983 0.0862137
321 1 0.999974 0.600058 0.0862332
323 1 0.100004 0.699998 0.0862023
331 1 0.300028 0.699986 0.0861942
339 1 0.499951 0.700063 0.0862495
347 1 0.700051 0.699973 0.0862528
355 1 0.899982 0.700001 0.0862363
361 1 2.77956e-05 0.800011 0.0862274
369 1 0.200063 0.800058 0.086219
377 1 0.399958 0.800035 0.0862264
385 1 0.599977 0.80003 0.086249
393 1 0.79996 0.799991 0.086238
363 1 0.0999767 0.899941 0.0862064
371 1 0.300007 0.899997 0.0862567
379 1 0.499996 0.899942 0.0862381
387 1 0.700042 0.900004 0.0862107
395 1 0.899957 0.899961 0.0862227
209 1 0.200004 0.999958 0.0862194
208 2 0.149947 0.0500368 0.104327
216 2 0.350006 0.0500487 0.104335
218 1 0.499968 7.35852e-06 0.122471
224 2 0.549951 0.0500383 0.104381
226 1 0.69999 -4.40362e-05 0.122459
232 2 0.750016 0.0500354 0.104356
240 2 0.950006 0.0500394 0.104334
212 1 0.199982 0.100035 0.122507
220 1 0.399982 0.0999411 0.122451
228 1 0.599969 0.100018 0.12248
236 1 0.799976 0.0999817 0.122464
204 1 0.999954 0.100001 0.122475
206 2 0.0500371 0.150016 0.104338
242 1 0.100059 0.199981 0.122482
214 2 0.250001 0.150036 0.10435
250 1 0.300023 0.199985 0.122508
222 2 0.449977 0.149974 0.104326
258 1 0.499958 0.200001 0.122481
230 2 0.650022 0.149987 0.104332
266 1 0.700013 0.200011 0.122448
238 2 0.84995 0.149976 0.104381
274 1 0.899937 0.199975 0.122489
248 2 0.149962 0.250039 0.104334
256 2 0.350016 0.249993 0.104349
264 2 0.549999 0.250001 0.104351
272 2 0.750016 0.249946 0.104349
280 2 0.950001 0.249953 0.104332
246 2 0.050052 0.349959 0.104335
252 1 0.200004 0.300055 0.122465
254 2 0.249966 0.350023 0.104333
260 1 0.400059 0.299944 0.122506
262 2 0.449968 0.350008 0.104375
268 1 0.599989 0.300046 0.122485
270 2 0.650033 0.350047 0.104358
278 2 0.849982 0.350052 0.104333
276 1 0.800011 0.300034 0.122491
244 1 0.999996 0.299972 0.122455
282 1 0.100031 0.399951 0.1225
290 1 0.299968 0.399938 0.122491
298 1 0.500012 0.39997 0.122501
306 1 0.700009 0.399942 0.12247
314 1 0.899968 0.399982 0.122481
284 1 -8.76939e-06 0.499977 0.122471
288 2 0.150042 0.449967 0.104372
292 1 0.200048 0.499938 0.122464
296 2 0.349993 0.45 0.104381
300 1 0.400026 0.500059 0.122473
304 2 0.55 0.449994 0.104344
312 2 0.750036 0.450003 0.10434
320 2 0.949975 0.450037 0.104367
286 2 0.049996 0.549967 0.104327
294 2 0.249951 0.549989 0.104324
302 2 0.450033 0.550044 0.10437
308 1 0.600019 0.499976 0.122472
310 2 0.649975 0.55001 0.104334
318 2 0.849979 0.550026 0.104322
316 1 0.799988 0.500032 0.12246
322 1 0.10004 0.600017 0.122507
330 1 0.300023 0.600059 0.122476
338 1 0.500036 0.599971 0.122451
346 1 0.700021 0.600054 0.12246
354 1 0.899944 0.599935 0.122506
324 1 6.32065e-05 0.699963 0.122473
328 2 0.150012 0.650037 0.104344
332 1 0.200033 0.700014 0.122486
336 2 0.349982 0.650029 0.104382
340 1 0.399956 0.699946 0.122488
344 2 0.549984 0.649951 0.104341
348 1 0.600002 0.699953 0.122484
352 2 0.749962 0.649979 0.104344
356 1 0.800044 0.700024 0.122508
360 2 0.949946 0.650026 0.10434
326 2 0.0499475 0.749975 0.104328
334 2 0.250035 0.750038 0.104363
342 2 0.450037 0.75002 0.104382
350 2 0.650054 0.749997 0.104376
358 2 0.850053 0.750016 0.104329
362 1 0.100022 0.800033 0.122485
368 2 0.150011 0.849984 0.104332
376 2 0.349958 0.850026 0.104369
370 1 0.299982 0.799984 0.122489
384 2 0.550061 0.850059 0.104336
378 1 0.50002 0.800014 0.122507
386 1 0.700062 0.799989 0.122502
392 2 0.750014 0.850045 0.104379
394 1 0.899964 0.799948 0.122484
400 2 0.950041 0.849966 0.104376
372 1 0.199946 0.9 0.122505
380 1 0.400062 0.899991 0.122485
388 1 0.600062 0.900005 0.122476
396 1 0.800022 0.899954 0.122505
364 1 1.00004 0.899994 0.122467
366 2 0.0500026 0.950049 0.104342
202 1 0.100012 1.00002 0.122498
374 2 0.24995 0.949953 0.104346
210 1 0.29995 1.00004 0.122486
382 2 0.450011 0.950055 0.104325
390 2 0.649944 0.949988 0.104341
398 2 0.850039 0.95003 0.104345
234 1 0.900055 0.999941 0.122459
207 2 0.0500189 0.0499933 0.140584
215 2 0.250022 0.0499618 0.140585
417 1 0.399968 -3.73244e-05 0.158754
223 2 0.450054 0.0499469 0.14059
425 1 0.599961 2.9402e-05 0.158712
231 2 0.649984 0.0500205 0.140612
239 2 0.850004 0.0499577 0.140574
403 1 0.100004 0.100021 0.15876
411 1 0.299939 0.0999725 0.158757
419 1 0.500023 0.0999948 0.15874
427 1 0.69994 0.100043 0.158715
435 1 0.899964 0.0999652 0.15873
205 2 0.15004 0.150013 0.140607
449 1 0.199993 0.199992 0.158756
213 2 0.350028 0.149984 0.140624
457 1 0.39999 0.20006 0.158762
221 2 0.549941 0.15002 0.14062
465 1 0.599938 0.200052 0.158758
229 2 0.750002 0.149966 0.140588
473 1 0.799992 0.200031 0.158711
441 1 0.999953 0.199941 0.15872
237 2 0.949961 0.14995 0.140615
247 2 0.050048 0.250016 0.140614
255 2 0.249989 0.249962 0.140619
263 2 0.449968 0.249994 0.14059
271 2 0.650054 0.249956 0.14061
279 2 0.849953 0.250009 0.140583
443 1 0.0999663 0.300025 0.158741
245 2 0.149969 0.350047 0.140582
253 2 0.350049 0.349962 0.140626
451 1 0.300006 0.299941 0.158737
459 1 0.499995 0.300003 0.158706
261 2 0.550005 0.349974 0.140592
467 1 0.69999 0.299945 0.158746
269 2 0.75002 0.350011 0.140576
475 1 0.899992 0.299951 0.158742
277 2 0.950011 0.35 0.140596
481 1 5.21338e-05 0.399992 0.158715
489 1 0.19994 0.399961 0.158756
497 1 0.399984 0.40005 0.15876
505 1 0.600004 0.400009 0.158739
513 1 0.800008 0.399984 0.158708
287 2 0.0500041 0.449998 0.140606
483 1 0.0999588 0.500051 0.158755
295 2 0.249947 0.450057 0.140629
491 1 0.300009 0.499996 0.158728
303 2 0.450029 0.450008 0.140598
311 2 0.649962 0.449996 0.140588
319 2 0.849978 0.450004 0.140618
285 2 0.149949 0.549991 0.140632
293 2 0.35006 0.550053 0.140592
301 2 0.549993 0.55 0.140619
499 1 0.500063 0.499962 0.158745
507 1 0.699953 0.500033 0.158703
309 2 0.749988 0.549962 0.140633
515 1 0.899959 0.499954 0.158742
317 2 0.950059 0.549955 0.140617
521 1 5.30725e-05 0.59995 0.158724
529 1 0.200006 0.599979 0.158761
537 1 0.399953 0.599991 0.158714
545 1 0.600017 0.599968 0.158699
553 1 0.799981 0.600023 0.15873
327 2 0.0499906 0.65 0.140576
523 1 0.100062 0.700048 0.15872
335 2 0.250033 0.649951 0.140631
531 1 0.299953 0.699937 0.158752
343 2 0.45003 0.649966 0.140574
539 1 0.500054 0.700058 0.158748
351 2 0.649946 0.650031 0.140617
547 1 0.699985 0.700051 0.158718
359 2 0.850027 0.64996 0.140602
555 1 0.900037 0.700039 0.158712
325 2 0.15002 0.750028 0.140584
333 2 0.350021 0.749942 0.140599
341 2 0.549998 0.749957 0.140615
349 2 0.750029 0.750023 0.14063
357 2 0.95003 0.749957 0.140577
367 2 0.0500368 0.849948 0.140589
569 1 0.199981 0.799968 0.158753
375 2 0.249958 0.849962 0.140582
577 1 0.400039 0.800008 0.158729
383 2 0.449973 0.849997 0.140601
585 1 0.600015 0.800057 0.158756
391 2 0.650058 0.850015 0.140623
399 2 0.850053 0.849951 0.140635
593 1 0.800064 0.800045 0.158751
561 1 1.00006 0.800008 0.158705
563 1 0.100061 0.89995 0.158734
571 1 0.299944 0.899978 0.158722
579 1 0.500009 0.899968 0.158709
587 1 0.700007 0.900008 0.15876
595 1 0.900052 0.900058 0.158759
409 1 0.19997 1.00001 0.158752
365 2 0.150013 0.949987 0.140591
373 2 0.34996 0.950025 0.140605
381 2 0.549983 0.949968 0.140586
389 2 0.749949 0.950033 0.140625
433 1 0.799946 1.00003 0.158714
401 1 0.999965 0.999988 0.158747
397 2 0.949948 0.949946 0.140612
408 2 0.150004 0.0500332 0.17688
416 2 0.349954 0.0500126 0.176872
418 1 0.500051 -5.08332e-05 0.194987
424 2 0.550045 0.0499481 0.176856
426 1 0.699949 3.52438e-06 0.194959
432 2 0.750021 0.0500455 0.17685
440 2 0.949958 0.0499451 0.176882
412 1 0.200034 0.100025 0.195008
420 1 0.400042 0.10005 0.194985
428 1 0.600016 0.100062 0.194962
436 1 0.799977 0.100001 0.194997
404 1 0.999945 0.100026 0.194962
406 2 0.0499958 0.149965 0.176854
442 1 0.0999518 0.200054 0.195009
414 2 0.249976 0.150052 0.176865
450 1 0.300023 0.200031 0.194984
422 2 0.449953 0.149972 0.176848
458 1 0.499968 0.200019 0.194991
430 2 0.649964 0.150057 0.176841
466 1 0.699997 0.199939 0.19498
438 2 0.850053 0.150007 0.176881
474 1 0.899997 0.199968 0.195013
448 2 0.150016 0.249978 0.176828
456 2 0.349992 0.249986 0.176883
464 2 0.55 0.249997 0.176865
472 2 0.750031 0.250004 0.176838
480 2 0.950056 0.250053 0.176846
446 2 0.0500343 0.349947 0.176838
444 1 -1.83373e-05 0.30003 0.19497
452 1 0.200019 0.300042 0.195012
454 2 0.249965 0.349987 0.176835
460 1 0.400064 0.299976 0.194963
462 2 0.449988 0.350041 0.176866
468 1 0.599947 0.300013 0.194998
470 2 0.65004 0.349948 0.176863
478 2 0.84999 0.350041 0.176835
476 1 0.800003 0.29995 0.194994
482 1 0.100035 0.399977 0.194958
490 1 0.300015 0.400037 0.194973
498 1 0.49998 0.400049 0.19501
506 1 0.699944 0.399957 0.19498
514 1 0.899971 0.400028 0.194982
484 1 7.26861e-06 0.499966 0.194997
488 2 0.149984 0.450033 0.176877
492 1 0.19998 0.499951 0.194957
496 2 0.349971 0.449987 0.176861
504 2 0.549951 0.449939 0.17688
512 2 0.75 0.449983 0.176875
520 2 0.950025 0.450013 0.176831
486 2 0.0500119 0.550006 0.176853
494 2 0.249947 0.550046 0.176857
500 1 0.39998 0.499991 0.194982
502 2 0.449963 0.550046 0.176863
508 1 0.599996 0.499937 0.194954
510 2 0.649953 0.549953 0.176883
518 2 0.84997 0.550017 0.176884
516 1 0.800064 0.499948 0.194963
522 1 0.100026 0.60001 0.195009
530 1 0.299985 0.599987 0.194983
538 1 0.499967 0.599954 0.194997
546 1 0.700039 0.600004 0.194971
554 1 0.900032 0.60005 0.194989
524 1 1.31868e-05 0.700009 0.194991
528 2 0.149997 0.649966 0.176852
532 1 0.199947 0.699945 0.194979
536 2 0.350026 0.64999 0.176835
540 1 0.399993 0.7 0.194987
544 2 0.550056 0.650051 0.176846
548 1 0.599982 0.699964 0.194991
552 2 0.750044 0.650028 0.176832
556 1 0.799938 0.700055 0.194993
560 2 0.950044 0.649941 0.176862
526 2 0.0499769 0.750009 0.176858
534 2 0.249956 0.749978 0.176876
542 2 0.449951 0.750043 0.176885
550 2 0.650054 0.749943 0.176852
558 2 0.850019 0.749972 0.176836
562 1 0.100012 0.79997 0.194999
568 2 0.150012 0.85005 0.176863
576 2 0.349991 0.850002 0.176877
570 1 0.299972 0.799953 0.194985
584 2 0.550037 0.849975 0.176849
578 1 0.500023 0.799975 0.194956
586 1 0.700024 0.800001 0.194977
592 2 0.75003 0.849992 0.176835
594 1 0.90003 0.799957 0.194972
600 2 0.949994 0.850039 0.176836
572 1 0.199981 0.899945 0.194985
580 1 0.400065 0.900025 0.194964
588 1 0.600017 0.900022 0.194986
596 1 0.800062 0.899978 0.194955
564 1 1.00003 0.89999 0.19498
566 2 0.0499951 0.949973 0.176867
402 1 0.0999603 0.99995 0.194965
574 2 0.250059 0.949964 0.17684
410 1 0.30003 1.00005 0.194991
582 2 0.45001 0.949947 0.176836
590 2 0.649999 0.949942 0.176856
598 2 0.849985 0.950024 0.176843
434 1 0.899945 0.99995 0.194965
407 2 0.0499837 0.0500335 0.21312
415 2 0.249949 0.0499844 0.213126
617 1 0.399994 -6.36509e-05 0.231208
423 2 0.450021 0.0500367 0.213134
625 1 0.599998 3.80523e-05 0.231222
431 2 0.649984 0.0499889 0.213138
439 2 0.850034 0.0499795 0.213118
633 1 0.799967 -4.96514e-05 0.23125
603 1 0.100052 0.100045 0.231238
611 1 0.299941 0.100004 0.231263
619 1 0.499937 0.0999387 0.231208
627 1 0.699943 0.0999401 0.231253
635 1 0.900052 0.100037 0.231251
405 2 0.149998 0.149982 0.213098
649 1 0.200013 0.200027 0.231218
413 2 0.350025 0.150016 0.213102
657 1 0.400063 0.200045 0.231214
421 2 0.549955 0.150011 0.213093
665 1 0.599984 0.200055 0.231212
429 2 0.750052 0.149971 0.213113
673 1 0.800059 0.20004 0.231257
437 2 0.950003 0.150003 0.213139
641 1 0.999977 0.200004 0.23126
447 2 0.0500104 0.249968 0.213116
455 2 0.250054 0.24998 0.213092
463 2 0.449975 0.249943 0.213125
471 2 0.649946 0.249953 0.213097
479 2 0.850009 0.250031 0.213092
643 1 0.100064 0.299999 0.23122
445 2 0.149992 0.350041 0.21309
453 2 0.349995 0.350032 0.213121
651 1 0.299973 0.299994 0.231233
659 1 0.499994 0.299974 0.231213
461 2 0.549988 0.350031 0.213087
667 1 0.700025 0.299996 0.231245
469 2 0.75 0.35005 0.213099
675 1 0.900007 0.299941 0.231252
477 2 0.949989 0.34995 0.213116
681 1 2.77645e-05 0.400021 0.231265
689 1 0.200006 0.399944 0.231205
697 1 0.400002 0.40001 0.231217
705 1 0.600044 0.399981 0.231261
713 1 0.800024 0.400061 0.231227
487 2 0.0499739 0.449979 0.213139
683 1 0.100007 0.499947 0.231252
495 2 0.249941 0.44997 0.21308
691 1 0.299971 0.49999 0.23123
503 2 0.450038 0.450023 0.213081
511 2 0.650041 0.450059 0.213125
519 2 0.850042 0.449992 0.213133
485 2 0.149971 0.550032 0.21313
493 2 0.35002 0.550023 0.21312
501 2 0.550013 0.549955 0.213129
699 1 0.499975 0.499984 0.231253
707 1 0.700025 0.499993 0.231235
509 2 0.750029 0.549973 0.213096
715 1 0.900039 0.500001 0.231229
517 2 0.949977 0.550041 0.213131
721 1 5.31773e-05 0.599998 0.231217
729 1 0.199962 0.600036 0.231223
737 1 0.400001 0.599988 0.231206
745 1 0.600003 0.600054 0.231246
753 1 0.800041 0.600029 0.231241
527 2 0.0500357 0.649955 0.213133
723 1 0.0999845 0.699998 0.231249
535 2 0.249948 0.650023 0.213133
731 1 0.300059 0.699985 0.231221
543 2 0.450061 0.650018 0.213112
739 1 0.500009 0.700061 0.231246
551 2 0.650054 0.649979 0.213113
747 1 0.699957 0.700024 0.231205
559 2 0.849982 0.649997 0.213087
755 1 0.900004 0.699937 0.231245
525 2 0.149962 0.749992 0.213139
533 2 0.350016 0.750059 0.213083
541 2 0.549972 0.750007 0.213129
549 2 0.74998 0.749978 0.213113
557 2 0.949943 0.750056 0.213112
567 2 0.0500147 0.850043 0.21312
761 1 4.51568e-05 0.800053 0.231266
769 1 0.199984 0.799959 0.231233
575 2 0.249989 0.849975 0.213093
777 1 0.400039 0.800046 0.231231
583 2 0.45006 0.849964 0.213081
785 1 0.599992 0.800018 0.231236
591 2 0.649992 0.849985 0.21311
599 2 0.84997 0.850037 0.2131
793 1 0.800014 0.799999 0.231224
763 1 0.100036 0.900044 0.231258
771 1 0.300025 0.900054 0.231218
779 1 0.50006 0.899991 0.231221
787 1 0.700002 0.899946 0.231249
795 1 0.899943 0.899942 0.231216
565 2 0.150047 0.950003 0.213129
609 1 0.199954 0.999994 0.231258
573 2 0.350026 0.950014 0.213122
581 2 0.549999 0.949974 0.213136
589 2 0.749967 0.949957 0.213096
597 2 0.950048 0.950058 0.213117
601 1 0.999979 1.00005 0.23125
608 2 0.14996 0.0500565 0.249385
616 2 0.350005 0.0500035 0.249332
618 1 0.500058 3.74862e-05 0.267468
624 2 0.549962 0.0499548 0.249382
626 1 0.700006 -1.7453e-05 0.267488
632 2 0.750008 0.0499818 0.249356
634 1 0.899959 5.23194e-05 0.267514
640 2 0.950039 0.0499674 0.249387
612 1 0.200001 0.099952 0.267507
620 1 0.399975 0.100017 0.267486
628 1 0.600027 0.0999417 0.267511
636 1 0.800036 0.0999795 0.267476
604 1 0.999984 0.0999965 0.267457
606 2 0.0499717 0.149958 0.249379
642 1 0.0999689 0.199985 0.267494
614 2 0.250053 0.150038 0.249343
650 1 0.299945 0.199999 0.267508
622 2 0.450036 0.150027 0.249388
658 1 0.499986 0.200028 0.267466
630 2 0.649942 0.149981 0.249333
666 1 0.700024 0.200033 0.267496
638 2 0.849991 0.149969 0.249372
674 1 0.900059 0.200002 0.267463
648 2 0.149951 0.24997 0.249392
656 2 0.350021 0.249965 0.249372
664 2 0.54995 0.250011 0.249391
672 2 0.749991 0.249956 0.249376
680 2 0.95004 0.250032 0.249366
646 2 0.0499922 0.349992 0.249384
644 1 5.03037e-05 0.299998 0.267473
652 1 0.200042 0.300019 0.26746
654 2 0.249955 0.349964 0.249332
660 1 0.399963 0.300024 0.267476
662 2 0.449962 0.349976 0.249388
668 1 0.599938 0.300044 0.267474
670 2 0.650016 0.349951 0.249352
678 2 0.850012 0.349996 0.249346
676 1 0.799942 0.300045 0.267478
682 1 0.100009 0.400035 0.26752
690 1 0.300022 0.400045 0.267497
698 1 0.499986 0.399977 0.267508
706 1 0.699978 0.399999 0.267488
714 1 0.899985 0.399984 0.267479
684 1 -5.44117e-05 0.500004 0.267495
688 2 0.149953 0.450007 0.249381
692 1 0.200018 0.500016 0.267509
696 2 0.350049 0.449995 0.249341
704 2 0.550027 0.449947 0.249356
712 2 0.749953 0.449972 0.249349
720 2 0.949992 0.44998 0.24934
686 2 0.0499481 0.549967 0.249385
694 2 0.250041 0.549996 0.249355
700 1 0.400018 0.500049 0.267474
702 2 0.450037 0.550033 0.24934
708 1 0.600043 0.500021 0.267516
710 2 0.650008 0.549995 0.249359
718 2 0.850007 0.549981 0.249348
716 1 0.800038 0.499967 0.267499
722 1 0.0999419 0.600005 0.267502
730 1 0.299983 0.599952 0.267489
738 1 0.499956 0.600037 0.267459
746 1 0.700032 0.600056 0.267504
754 1 0.899999 0.599943 0.267507
724 1 -4.75185e-05 0.700007 0.267481
728 2 0.149979 0.649988 0.249374
732 1 0.200021 0.700007 0.2675
736 2 0.350028 0.650035 0.249341
740 1 0.40004 0.700014 0.267481
744 2 0.549959 0.650014 0.249349
748 1 0.600033 0.700019 0.267504
752 2 0.749991 0.650032 0.249362
756 1 0.799963 0.700026 0.267472
760 2 0.950012 0.650034 0.24935
726 2 0.0499807 0.750039 0.249349
734 2 0.249953 0.749974 0.249389
742 2 0.449971 0.749956 0.249374
750 2 0.649947 0.749971 0.249371
758 2 0.849986 0.749992 0.249356
762 1 0.100039 0.799966 0.267518
768 2 0.150015 0.850035 0.249343
776 2 0.350022 0.850022 0.249376
770 1 0.300011 0.800003 0.267468
784 2 0.55004 0.850028 0.249391
778 1 0.500045 0.799938 0.267464
786 1 0.699967 0.799963 0.267474
792 2 0.75001 0.849975 0.24937
794 1 0.899938 0.799999 0.267489
800 2 0.949954 0.850039 0.249363
764 1 -1.66504e-05 0.89999 0.267504
772 1 0.199938 0.900031 0.267497
780 1 0.399977 0.899958 0.267517
788 1 0.599952 0.900063 0.267515
796 1 0.800023 0.900056 0.26746
766 2 0.0500439 0.950003 0.249388
602 1 0.0999581 0.999979 0.267461
774 2 0.249973 0.949989 0.249391
610 1 0.300005 1.00001 0.267471
782 2 0.450057 0.950004 0.249364
790 2 0.649941 0.949958 0.249372
798 2 0.850008 0.949965 0.249371
607 2 0.0500361 0.0499718 0.285609
615 2 0.249997 0.0499892 0.285628
623 2 0.449968 0.0499775 0.28561
825 1 0.599994 -2.87949e-05 0.303756
631 2 0.650023 0.0500584 0.285632
639 2 0.849977 0.0500598 0.28564
833 1 0.80003 4.29459e-05 0.303723
803 1 0.10002 0.100036 0.303736
811 1 0.300053 0.0999429 0.30371
819 1 0.499957 0.0999773 0.303734
827 1 0.700036 0.100027 0.303724
835 1 0.89999 0.0999918 0.303729
605 2 0.149943 0.149961 0.285593
849 1 0.199946 0.199958 0.303771
613 2 0.34997 0.150003 0.285614
857 1 0.399995 0.200027 0.303725
621 2 0.549945 0.150011 0.285607
865 1 0.599993 0.200021 0.303732
629 2 0.749983 0.149962 0.285631
873 1 0.800025 0.199987 0.303718
637 2 0.949949 0.150044 0.285617
841 1 0.999999 0.199997 0.303762
647 2 0.0499882 0.249974 0.285594
655 2 0.249998 0.250005 0.285613
663 2 0.450035 0.249945 0.28559
671 2 0.650007 0.250009 0.285639
679 2 0.850006 0.249978 0.285593
843 1 0.0999716 0.300058 0.303731
645 2 0.150014 0.349976 0.285604
653 2 0.349966 0.350034 0.28562
851 1 0.300026 0.299971 0.303771
661 2 0.550034 0.350059 0.28559
859 1 0.500054 0.299938 0.303763
867 1 0.699943 0.299969 0.303742
669 2 0.749979 0.349951 0.285636
875 1 0.899977 0.300047 0.303765
677 2 0.950006 0.35003 0.285603
881 1 5.5279e-05 0.4 0.303728
889 1 0.199959 0.400047 0.303715
897 1 0.399952 0.399967 0.303711
905 1 0.600037 0.400055 0.30372
913 1 0.800048 0.399962 0.303738
687 2 0.0499789 0.450045 0.285595
883 1 0.0999736 0.499936 0.303766
695 2 0.250052 0.449983 0.285619
703 2 0.450035 0.450022 0.285642
711 2 0.649968 0.450051 0.28562
719 2 0.850033 0.450034 0.285645
915 1 0.899947 0.499988 0.303719
685 2 0.150051 0.549968 0.285589
693 2 0.350024 0.549955 0.285594
891 1 0.299964 0.500046 0.303761
701 2 0.549984 0.550006 0.28564
899 1 0.500052 0.499983 0.303766
907 1 0.700005 0.499974 0.30376
709 2 0.749975 0.549975 0.285619
717 2 0.950006 0.550012 0.285628
921 1 2.98405e-05 0.600005 0.303772
929 1 0.200052 0.599991 0.303734
937 1 0.400003 0.59994 0.303748
945 1 0.599975 0.599976 0.303773
953 1 0.800035 0.599957 0.303728
727 2 0.0499615 0.650059 0.285604
923 1 0.0999423 0.70002 0.303714
735 2 0.249994 0.650006 0.285593
931 1 0.299996 0.700035 0.303766
743 2 0.450044 0.650046 0.285617
939 1 0.499964 0.700016 0.30372
751 2 0.649955 0.649999 0.285644
947 1 0.700021 0.699959 0.30377
759 2 0.849988 0.649997 0.285596
955 1 0.89997 0.699966 0.303755
725 2 0.150006 0.749991 0.285622
733 2 0.350031 0.749971 0.285641
741 2 0.550014 0.750019 0.285642
749 2 0.74995 0.749987 0.285629
757 2 0.949955 0.750007 0.285622
767 2 0.0499852 0.849946 0.285599
961 1 -1.57481e-07 0.799983 0.303755
969 1 0.199969 0.800057 0.303753
775 2 0.249967 0.850056 0.285601
977 1 0.399965 0.800002 0.303766
783 2 0.450033 0.849956 0.285607
985 1 0.600025 0.799969 0.303734
791 2 0.650023 0.850033 0.285626
799 2 0.849953 0.850042 0.285605
993 1 0.799968 0.799962 0.303751
963 1 0.0999481 0.899961 0.303769
971 1 0.30003 0.899979 0.30376
979 1 0.500044 0.899953 0.30374
987 1 0.699984 0.899961 0.303739
995 1 0.899978 0.899957 0.303715
765 2 0.150035 0.949957 0.285612
809 1 0.19994 0.999948 0.303712
773 2 0.349945 0.949956 0.2856
817 1 0.39996 1 0.303753
781 2 0.550049 0.950014 0.285601
789 2 0.749983 0.94996 0.2856
797 2 0.95004 0.950043 0.285636
801 1 0.999939 0.999998 0.303716
808 2 0.14999 0.0499809 0.321874
816 2 0.349974 0.050008 0.321846
824 2 0.549985 0.0499604 0.321852
826 1 0.700016 1.05003e-05 0.339983
832 2 0.749947 0.0499602 0.32186
834 1 0.899958 2.48516e-05 0.340002
840 2 0.95001 0.0500021 0.321845
812 1 0.199949 0.100029 0.339991
820 1 0.400031 0.0999744 0.340009
828 1 0.600031 0.100001 0.340002
836 1 0.799936 0.100004 0.339962
804 1 1.00003 0.0999462 0.340001
806 2 0.0499849 0.149999 0.321876
842 1 0.100045 0.20003 0.339989
814 2 0.249956 0.14995 0.321842
850 1 0.299952 0.199992 0.339973
822 2 0.449954 0.149943 0.321884
858 1 0.500051 0.200057 0.340018
830 2 0.649955 0.149981 0.321854
866 1 0.699954 0.200052 0.339978
838 2 0.849943 0.150009 0.321842
874 1 0.900054 0.199949 0.339986
848 2 0.150006 0.25005 0.321881
856 2 0.349958 0.250022 0.321872
864 2 0.549973 0.249964 0.321841
872 2 0.749995 0.249968 0.321841
880 2 0.950059 0.250007 0.32187
846 2 0.0500497 0.350058 0.321838
852 1 0.200004 0.300001 0.339988
854 2 0.250004 0.350039 0.321863
860 1 0.399962 0.299968 0.340009
862 2 0.44995 0.349947 0.321891
868 1 0.599973 0.300029 0.340007
870 2 0.649999 0.349944 0.321865
878 2 0.849997 0.350023 0.32188
876 1 0.800054 0.299977 0.339982
844 1 0.999964 0.29995 0.339992
882 1 0.0999966 0.400017 0.340023
890 1 0.300007 0.400004 0.340007
898 1 0.500012 0.399968 0.340012
906 1 0.699942 0.400012 0.339979
914 1 0.899947 0.399954 0.340002
888 2 0.150022 0.450054 0.321877
896 2 0.349971 0.449982 0.321885
904 2 0.549962 0.450042 0.321869
912 2 0.750047 0.449984 0.321887
916 1 0.800053 0.499991 0.339993
920 2 0.94999 0.450051 0.321865
884 1 1.00002 0.499938 0.340009
886 2 0.0499859 0.550028 0.321847
892 1 0.200009 0.500044 0.339985
894 2 0.250035 0.549989 0.32184
900 1 0.399945 0.500061 0.340021
902 2 0.450056 0.549968 0.321879
908 1 0.600034 0.499947 0.33998
910 2 0.649999 0.550043 0.321838
918 2 0.850017 0.54999 0.321877
922 1 0.0999604 0.600056 0.339997
930 1 0.300008 0.599946 0.340005
938 1 0.499949 0.599938 0.340006
946 1 0.700002 0.600015 0.340018
954 1 0.900048 0.599951 0.339986
924 1 -3.37855e-05 0.699979 0.34002
928 2 0.149994 0.650029 0.321841
932 1 0.200029 0.699978 0.339997
936 2 0.349999 0.649944 0.321851
940 1 0.40001 0.700024 0.340015
944 2 0.55001 0.650035 0.321889
948 1 0.600041 0.700058 0.340014
952 2 0.749972 0.650014 0.32185
956 1 0.79998 0.70001 0.339972
960 2 0.949999 0.649953 0.321848
926 2 0.0500252 0.750025 0.32185
934 2 0.250042 0.75002 0.321871
942 2 0.450051 0.750049 0.321844
950 2 0.649954 0.750046 0.321856
958 2 0.849944 0.750023 0.321882
962 1 0.0999435 0.799937 0.33999
968 2 0.150025 0.85005 0.321856
976 2 0.349996 0.850022 0.321894
970 1 0.300014 0.800044 0.340004
978 1 0.499977 0.799975 0.34002
984 2 0.549969 0.850048 0.321875
986 1 0.699983 0.80001 0.33997
992 2 0.749989 0.85002 0.321876
994 1 0.899949 0.800035 0.339992
1000 2 0.949981 0.850046 0.321877
964 1 4.71966e-06 0.9 0.340006
972 1 0.199984 0.90005 0.339971
980 1 0.39998 0.899968 0.339974
988 1 0.600011 0.900061 0.339979
996 1 0.800029 0.899978 0.339974
966 2 0.0500343 0.950022 0.321868
802 1 0.100021 1.00005 0.340015
974 2 0.250022 0.950029 0.321872
810 1 0.300015 0.999944 0.339991
982 2 0.450008 0.950042 0.321893
818 1 0.500012 1.00003 0.340018
990 2 0.650035 0.950058 0.32184
998 2 0.850036 0.949984 0.321891
807 2 0.0499966 0.0499428 0.358119
815 2 0.250016 0.0499464 0.358129
823 2 0.449957 0.04999 0.358122
831 2 0.649969 0.0500439 0.358143
839 2 0.849995 0.050016 0.358103
1033 1 0.79996 -3.94833e-05 0.376243
1003 1 0.0999702 0.0999633 0.376252
1011 1 0.300044 0.100028 0.376251
1019 1 0.499979 0.100006 0.376276
1027 1 0.699981 0.100048 0.376255
1035 1 0.900036 0.0999927 0.376276
805 2 0.150022 0.149962 0.358129
1049 1 0.199956 0.200054 0.376261
813 2 0.349981 0.150021 0.358126
1057 1 0.400005 0.19995 0.376257
821 2 0.54998 0.149972 0.358091
1065 1 0.600042 0.200019 0.37625
829 2 0.749949 0.149975 0.358132