ITEM: TIMESTEP
300
ITEM: NUMBER OF ATOMS
1250
ITEM: BOX BOUNDS pp pp pp
0.0000000000000000e+00 3.6000000000000000e+01
0.0000000000000000e+00 3.6000000000000000e+01
-1.4400000000000000e+01 5.7600000000000001e+01
ITEM: ATOMS id type xs ys zs
1 1 0 0 0
8 2 0.15 0.05 0.025
9 1 0.2 0 0
16 2 0.35 0.05 0.025
17 1 0.4 0 0
24 2 0.55 0.05 0.025
25 1 0.6 0 0
32 2 0.75 0.05 0.025
33 1 0.8 0 0
40 2 0.95 0.05 0.025
6 2 0.05 0.15 0.025
3 1 0.1 0.1 0
11 1 0.3 0.1 0
14 2 0.25 0.15 0.025
22 2 0.45 0.15 0.025
19 1 0.5 0.1 0
30 2 0.65 0.15 0.025
27 1 0.7 0.1 0
35 1 0.9 0.1 0
38 2 0.85 0.15 0.025
41 1 0 0.2 0
49 1 0.2 0.2 0
57 1 0.4 0.2 0
65 1 0.6 0.2 0
73 1 0.8 0.2 0
43 1 0.1 0.3 0
48 2 0.15 0.25 0.025
51 1 0.3 0.3 0
56 2 0.35 0.25 0.025
59 1 0.5 0.3 0
64 2 0.55 0.25 0.025
67 1 0.7 0.3 0
72 2 0.75 0.25 0.025
75 1 0.9 0.3 0
80 2 0.95 0.25 0.025
46 2 0.05 0.35 0.025
54 2 0.25 0.35 0.025
62 2 0.45 0.35 0.025
70 2 0.65 0.35 0.025
78 2 0.85 0.35 0.025
81 1 0 0.4 0
88 2 0.15 0.45 0.025
89 1 0.2 0.4 0
96 2 0.35 0.45 0.025
97 1 0.4 0.4 0
104 2 0.55 0.45 0.025
105 1 0.6 0.4 0
112 2 0.75 0.45 0.025
113 1 0.8 0.4 0
120 2 0.95 0.45 0.025
83 1 0.1 0.5 0
91 1 0.3 0.5 0
99 1 0.5 0.5 0
107 1 0.7 0.5 0
115 1 0.9 0.5 0
86 2 0.05 0.55 0.025
121 1 0 0.6 0
129 1 0.2 0.6 0
94 2 0.25 0.55 0.025
102 2 0.45 0.55 0.025
137 1 0.4 0.6 0
145 1 0.6 0.6 0
110 2 0.65 0.55 0.025
153 1 0.8 0.6 0
118 2 0.85 0.55 0.025
128 2 0.15 0.65 0.025
136 2 0.35 0.65 0.025
144 2 0.55 0.65 0.025
152 2 0.75 0.65 0.025
160 2 0.95 0.65 0.025
126 2 0.05 0.75 0.025
123 1 0.1 0.7 0
131 1 0.3 0.7 0
134 2 0.25 0.75 0.025
142 2 0.45 0.75 0.025
139 1 0.5 0.7 0
150 2 0.65 0.75 0.025
147 1 0.7 0.7 0
155 1 0.9 0.7 0
158 2 0.85 0.75 0.025
161 1 0 0.8 0
169 1 0.2 0.8 0
177 1 0.4 0.8 0
185 1 0.6 0.8 0
193 1 0.8 0.8 0
163 1 0.1 0.9 0
168 2 0.15 0.85 0.025
171 1 0.3 0.9 0
176 2 0.35 0.85 0.025
179 1 0.5 0.9 0
184 2 0.55 0.85 0.025
187 1 0.7 0.9 0
192 2 0.75 0.85 0.025
195 1 0.9 0.9 0
200 2 0.95 0.85 0.025
166 2 0.05 0.95 0.025
174 2 0.25 0.95 0.025
182 2 0.45 0.95 0.025
190 2 0.65 0.95 0.025
198 2 0.85 0.95 0.025
7 2 0.0501082 0.0504664 0.0719609
2 1 0.1 0 0.05
10 1 0.3 0 0.05
15 2 0.249718 0.0500002 0.0721814
23 2 0.450286 0.0502127 0.072196
18 1 0.5 0 0.05
31 2 0.650098 0.0499365 0.0720088
26 1 0.7 0 0.05
34 1 0.9 0 0.05
39 2 0.85043 0.0501688 0.0719605
4 1 0 0.1 0.05
5 2 0.149816 0.150174 0.071719
12 1 0.2 0.1 0.05
13 2 0.349897 0.150294 0.0722162
20 1 0.4 0.1 0.05
28 1 0.6 0.1 0.05
21 2 0.550327 0.150466 0.071723
29 2 0.75047 0.149821 0.0717498
36 1 0.8 0.1 0.05
37 2 0.950292 0.149694 0.0721677
42 1 0.1 0.2 0.05
50 1 0.3 0.2 0.05
58 1 0.5 0.2 0.05
66 1 0.7 0.2 0.05
74 1 0.9 0.2 0.05
44 1 0 0.3 0.05
47 2 0.0495973 0.250293 0.0716491
52 1 0.2 0.3 0.05
55 2 0.249785 0.250248 0.072143
60 1 0.4 0.3 0.05
63 2 0.449829 0.249676 0.0720232
68 1 0.6 0.3 0.05
71 2 0.65047 0.249585 0.0719384
76 1 0.8 0.3 0.05
79 2 0.849794 0.250516 0.0718783
45 2 0.149398 0.35028 0.0718572
53 2 0.349782 0.34996 0.0717713
61 2 0.550475 0.349934 0.0719818
69 2 0.750213 0.349575 0.0719395
77 2 0.949944 0.350223 0.0720754
87 2 0.0495957 0.449604 0.0718931
82 1 0.1 0.4 0.05
90 1 0.3 0.4 0.05
95 2 0.250272 0.450142 0.0720809
103 2 0.45 0.450208 0.0717574
98 1 0.5 0.4 0.05
111 2 0.650133 0.449428 0.0720373
106 1 0.7 0.4 0.05
114 1 0.9 0.4 0.05
119 2 0.850009 0.449331 0.0717897
84 1 0 0.5 0.05
92 1 0.2 0.5 0.05
100 1 0.4 0.5 0.05
108 1 0.6 0.5 0.05
116 1 0.8 0.5 0.05
122 1 0.1 0.6 0.05
85 2 0.149531 0.549888 0.0718725
130 1 0.3 0.6 0.05
93 2 0.349935 0.550396 0.0721499
138 1 0.5 0.6 0.05
101 2 0.550265 0.550551 0.072176
146 1 0.7 0.6 0.05
109 2 0.750386 0.549604 0.0720782
154 1 0.9 0.6 0.05
117 2 0.950004 0.550434 0.0719053
127 2 0.0505021 0.650391 0.0717094
135 2 0.249605 0.649718 0.0720828
143 2 0.450137 0.650531 0.0718339
151 2 0.649733 0.650115 0.071778
159 2 0.850047 0.650243 0.0721444
124 1 0 0.7 0.05
125 2 0.150737 0.750256 0.0722103
132 1 0.2 0.7 0.05
133 2 0.350132 0.749759 0.0718068
140 1 0.4 0.7 0.05
148 1 0.6 0.7 0.05
141 2 0.549679 0.750354 0.0722262
149 2 0.749839 0.750035 0.0719336
156 1 0.8 0.7 0.05
157 2 0.950066 0.750373 0.071976
162 1 0.1 0.8 0.05
170 1 0.3 0.8 0.05
178 1 0.5 0.8 0.05
186 1 0.7 0.8 0.05
194 1 0.9 0.8 0.05
164 1 0 0.9 0.05
167 2 0.0499122 0.850413 0.0716929
172 1 0.2 0.9 0.05
175 2 0.250569 0.850166 0.0720995
180 1 0.4 0.9 0.05
183 2 0.450289 0.850414 0.0718777
188 1 0.6 0.9 0.05
191 2 0.650292 0.849487 0.0721988
196 1 0.8 0.9 0.05
199 2 0.850264 0.849817 0.0721316
165 2 0.149373 0.949652 0.0721784
173 2 0.349921 0.949895 0.0721729
181 2 0.549341 0.949612 0.0718884
189 2 0.750456 0.950142 0.0717324
197 2 0.949609 0.949755 0.0719059
209 1 0.199751 -0.000420908 0.093966
217 1 0.399518 0.000619724 0.0940314
201 1 1.00003 0.000334028 0.0939833
203 1 0.10035 0.100302 0.0936585
211 1 0.29988 0.100306 0.0940083
219 1 0.500497 0.100677 0.0936645
227 1 0.700309 0.100308 0.0936822
235 1 0.900096 0.100162 0.093851
241 1 0.000195162 0.200233 0.0938985
249 1 0.200259 0.199614 0.0938945
257 1 0.40013 0.200048 0.0941888
265 1 0.599872 0.200379 0.0940246
273 1 0.799829 0.200225 0.0937205
243 1 0.0997091 0.299488 0.0939213
251 1 0.299791 0.299953 0.0937592
259 1 0.499983 0.299705 0.0938573
267 1 0.700453 0.299708 0.0940442
275 1 0.900153 0.300295 0.0940866
281 1 -1.89954e-05 0.399555 0.0939732
289 1 0.19996 0.399989 0.0939341
297 1 0.400103 0.400079 0.0937317
305 1 0.600252 0.399452 0.0942878
313 1 0.800064 0.399895 0.094065
283 1 0.100018 0.499935 0.0937299
291 1 0.299675 0.500047 0.0941113
299 1 0.500341 0.500405 0.0941512
307 1 0.700201 0.500153 0.0939002
315 1 0.899725 0.499574 0.0939221
329 1 0.199344 0.599708 0.0939957
337 1 0.400395 0.600564 0.0942868
345 1 0.600623 0.599703 0.0939472
353 1 0.799511 0.600058 0.0938292
321 1 0.99989 0.60081 0.0939807
323 1 0.100157 0.700144 0.0937424
331 1 0.300184 0.699874 0.0937159
339 1 0.499533 0.700565 0.0942714
347 1 0.700296 0.699735 0.0941413
355 1 0.899966 0.700233 0.093984
361 1 0.000316179 0.800305 0.0939014
369 1 0.200826 0.800517 0.0939792
377 1 0.399684 0.800425 0.0940101
385 1 0.600002 0.800062 0.0943146
393 1 0.799606 0.800063 0.0941245
363 1 0.0996213 0.899472 0.0938828
371 1 0.300021 0.900027 0.0943294
379 1 0.499984 0.899644 0.0941221
387 1 0.700493 0.900147 0.0938388
395 1 0.899908 0.899522 0.0940874
225 1 0.599184 0.999793 0.0939135
233 1 0.800495 0.999939 0.0937037
208 2 0.149656 0.0503691 0.115767
202 1 0.100236 0.00016777 0.138127
210 1 0.299552 0.000300728 0.137874
216 2 0.349716 0.0504533 0.115838
218 1 0.499792 -0.000132203 0.13789
224 2 0.549433 0.0504431 0.116228
232 2 0.750109 0.0501326 0.115866
226 1 0.699689 -0.000269024 0.13776
234 1 0.900752 -0.000508758 0.137753
240 2 0.950014 0.0503832 0.115786
206 2 0.0504402 0.150142 0.115848
204 1 -0.000284991 0.100142 0.137926
212 1 0.199885 0.10023 0.138195
214 2 0.250142 0.150275 0.116114
222 2 0.449827 0.149607 0.115737
220 1 0.400022 0.0994104 0.137818
228 1 0.599654 0.100454 0.138088
230 2 0.650099 0.149901 0.11573
236 1 0.799768 0.0996489 0.137934
238 2 0.84938 0.14975 0.11613
242 1 0.100675 0.199896 0.138053
250 1 0.300357 0.199821 0.138357
258 1 0.499417 0.199924 0.137947
266 1 0.700174 0.199848 0.137673
274 1 0.899377 0.199678 0.138125
244 1 4.7876e-05 0.29957 0.137731
248 2 0.149954 0.250206 0.11579
252 1 0.2 0.300445 0.137895
256 2 0.35007 0.250021 0.116021
260 1 0.400391 0.299477 0.138249
264 2 0.549918 0.250084 0.116086
268 1 0.600229 0.300254 0.138067
272 2 0.750351 0.249655 0.115989
276 1 0.800076 0.300358 0.137946
280 2 0.949784 0.24938 0.115843
246 2 0.0505094 0.349568 0.115853
254 2 0.249772 0.350118 0.115725
262 2 0.44978 0.349955 0.116198
270 2 0.650507 0.350116 0.116063
278 2 0.84989 0.350406 0.115859
288 2 0.150218 0.449667 0.116153
282 1 0.100088 0.399685 0.138132
290 1 0.29958 0.399368 0.138326
296 2 0.349908 0.449931 0.116322
298 1 0.500165 0.399738 0.138206
304 2 0.550029 0.449763 0.115967
312 2 0.750262 0.450047 0.115887
306 1 0.70022 0.399787 0.137916
314 1 0.899631 0.399935 0.138089
320 2 0.949771 0.450037 0.116125
284 1 0.000107583 0.499722 0.137914
292 1 0.200213 0.4997 0.137956
300 1 0.400428 0.500594 0.137964
308 1 0.600021 0.499886 0.137895
316 1 0.799926 0.500401 0.137849
286 2 0.0499982 0.549892 0.115766
322 1 0.100383 0.600048 0.138156
294 2 0.249547 0.55004 0.115793
330 1 0.300011 0.600292 0.137929
302 2 0.450443 0.550457 0.11614
338 1 0.500588 0.59965 0.137811
310 2 0.650023 0.550011 0.115886
346 1 0.699991 0.600389 0.137959
318 2 0.849682 0.550223 0.115615
354 1 0.899704 0.599119 0.13826
328 2 0.150138 0.650464 0.115965
336 2 0.349787 0.650353 0.116211
344 2 0.549972 0.649503 0.115747
352 2 0.750026 0.64995 0.116015
360 2 0.949235 0.650139 0.116036
326 2 0.0497494 0.749803 0.115739
324 1 0.000460005 0.699491 0.137801
332 1 0.200627 0.700058 0.138131
334 2 0.250504 0.750269 0.11602
342 2 0.450022 0.750443 0.116457
340 1 0.399863 0.699514 0.138119
348 1 0.599867 0.699531 0.137984
350 2 0.650597 0.749956 0.116334
356 1 0.800494 0.700209 0.138247
358 2 0.85032 0.750125 0.115775
362 1 0.100212 0.800043 0.137842
370 1 0.300024 0.799755 0.13822
378 1 0.500563 0.800371 0.138312
386 1 0.700793 0.800003 0.138354
394 1 0.899876 0.79942 0.138098
364 1 0.000523821 0.900001 0.137948
368 2 0.150139 0.849887 0.115757
372 1 0.199361 0.899796 0.138194
376 2 0.349637 0.850265 0.116322
380 1 0.400503 0.900258 0.138036
384 2 0.550626 0.850598 0.116
388 1 0.600768 0.899954 0.138076
392 2 0.750183 0.850491 0.116329
396 1 0.800482 0.899829 0.138475
400 2 0.950307 0.849569 0.116281
366 2 0.0502325 0.950474 0.115881
374 2 0.249379 0.94949 0.11606
382 2 0.450023 0.95055 0.115649
390 2 0.649532 0.949811 0.115734
398 2 0.850291 0.950061 0.115937
207 2 0.0500437 0.0500422 0.159936
409 1 0.199774 1.76276e-05 0.182299
215 2 0.249899 0.049683 0.159946
223 2 0.45033 0.0494134 0.159979
231 2 0.649785 0.0501596 0.159996
433 1 0.799461 0.000459187 0.181845
239 2 0.850068 0.0493823 0.159582
205 2 0.150367 0.150142 0.160219
403 1 0.10013 0.100158 0.182279
411 1 0.29925 0.0998234 0.182322
213 2 0.35039 0.149603 0.160372
419 1 0.500167 0.0996731 0.182202
221 2 0.549352 0.150366 0.160233
229 2 0.749945 0.149735 0.159794
427 1 0.699377 0.100561 0.181909
435 1 0.899481 0.0993092 0.182103
237 2 0.949301 0.149341 0.160125
441 1 -0.000343779 0.199415 0.181884
449 1 0.199954 0.199895 0.182275
457 1 0.399833 0.200572 0.182383
465 1 0.599286 0.200624 0.182239
473 1 0.800049 0.199996 0.18183
247 2 0.0504029 0.249963 0.160114
443 1 0.100035 0.300207 0.182046
255 2 0.24972 0.249632 0.16016
451 1 0.30007 0.299308 0.18215
263 2 0.44977 0.249754 0.160003
459 1 0.499821 0.300036 0.181836
271 2 0.650388 0.2495 0.160051
467 1 0.700185 0.299515 0.182093
279 2 0.849528 0.250168 0.159808
475 1 0.899852 0.299595 0.182068
245 2 0.149716 0.350249 0.159891
253 2 0.350585 0.349494 0.160355
261 2 0.550143 0.349811 0.159985
269 2 0.750038 0.349915 0.159821
277 2 0.950102 0.349821 0.159934
287 2 0.0502298 0.450053 0.160025
481 1 0.000584063 0.399773 0.181866
489 1 0.19917 0.399823 0.182301
295 2 0.249448 0.450231 0.160399
303 2 0.450292 0.450185 0.160009
497 1 0.399927 0.400618 0.182319
505 1 0.600026 0.399834 0.182181
311 2 0.649674 0.449762 0.159808
513 1 0.799813 0.399921 0.181808
319 2 0.849628 0.450114 0.160078
483 1 0.0995121 0.500317 0.182333
491 1 0.300126 0.500374 0.182024
499 1 0.500429 0.499718 0.182314
507 1 0.699362 0.500019 0.181891
515 1 0.899537 0.499769 0.182216
521 1 0.000701979 0.599532 0.181927
285 2 0.149768 0.549704 0.160329
529 1 0.199857 0.599762 0.182297
293 2 0.350402 0.5505 0.159837
537 1 0.399855 0.600107 0.181812
301 2 0.549992 0.549782 0.160114
545 1 0.600176 0.599625 0.181839
309 2 0.74981 0.549834 0.160244
553 1 0.799929 0.600108 0.182047
317 2 0.950493 0.549304 0.16023
327 2 0.0501831 0.650035 0.159842
335 2 0.250156 0.64938 0.160348
343 2 0.450574 0.649653 0.159774
351 2 0.649649 0.650261 0.160144
359 2 0.850346 0.649634 0.160095
325 2 0.150353 0.750389 0.15978
523 1 0.10052 0.700443 0.181883
531 1 0.29955 0.699489 0.182326
333 2 0.350062 0.749298 0.160123
539 1 0.500132 0.70051 0.182288
341 2 0.550318 0.749754 0.160202
349 2 0.75066 0.750386 0.16042
547 1 0.700013 0.700351 0.181852
555 1 0.900658 0.700008 0.181849
357 2 0.95061 0.749556 0.159669
561 1 0.000436671 0.800034 0.181724
569 1 0.199749 0.799729 0.182321
577 1 0.400085 0.800067 0.182046
585 1 0.600456 0.800233 0.182268
593 1 0.800777 0.800308 0.182295
367 2 0.0505739 0.84966 0.159839
563 1 0.100479 0.89957 0.182019
375 2 0.249332 0.84943 0.159854
571 1 0.299533 0.899449 0.181842
383 2 0.44983 0.849915 0.160006
579 1 0.500209 0.899452 0.181783
391 2 0.650774 0.850158 0.160275
587 1 0.700196 0.900066 0.182387
399 2 0.850902 0.849665 0.160457
595 1 0.900269 0.900508 0.182372
365 2 0.150054 0.949975 0.160007
373 2 0.349498 0.950166 0.159996
417 1 0.399653 0.99975 0.182304
381 2 0.549832 0.949652 0.159744
425 1 0.599735 0.999899 0.181802
389 2 0.749427 0.950194 0.160214
397 2 0.94978 0.949394 0.160079
401 1 0.999639 0.999775 0.18217
408 2 0.150045 0.0503837 0.204453
416 2 0.349697 0.0503158 0.204295
424 2 0.550489 0.0495362 0.204124
432 2 0.749919 0.0506668 0.203956
440 2 0.949338 0.0493722 0.204332
406 2 0.0498642 0.149845 0.204105
414 2 0.249818 0.150567 0.204272
422 2 0.449671 0.149868 0.203934
430 2 0.64954 0.150743 0.203829
438 2 0.850368 0.150104 0.20431
448 2 0.150102 0.250019 0.203908
456 2 0.349962 0.250003 0.204418
464 2 0.549641 0.250226 0.204225
472 2 0.750286 0.249816 0.203945
480 2 0.950479 0.250227 0.204018
446 2 0.0502793 0.349583 0.203894
454 2 0.249793 0.349817 0.203861
462 2 0.450089 0.350535 0.204141
470 2 0.65017 0.349279 0.204115
478 2 0.84983 0.350283 0.203864
488 2 0.149601 0.450348 0.20419
496 2 0.349631 0.450095 0.204128
504 2 0.549539 0.449152 0.204317
512 2 0.749785 0.449744 0.204152
520 2 0.950347 0.449965 0.203797
486 2 0.0501104 0.550118 0.204256
494 2 0.24958 0.550235 0.204117
502 2 0.449566 0.55031 0.20406
510 2 0.649535 0.549595 0.204307
518 2 0.849841 0.550343 0.204343
528 2 0.149795 0.649599 0.204
536 2 0.350212 0.649797 0.203908
544 2 0.550513 0.650151 0.203966
552 2 0.750321 0.650516 0.203766
560 2 0.950678 0.649507 0.204024
526 2 0.0499056 0.750078 0.204064
534 2 0.249373 0.749489 0.204328
542 2 0.449515 0.750344 0.204349
550 2 0.650409 0.74949 0.204111
558 2 0.850261 0.749611 0.203877
568 2 0.150087 0.850176 0.204214
576 2 0.34986 0.85 0.204273
584 2 0.550386 0.849953 0.204017
592 2 0.750415 0.849918 0.203875
600 2 0.950206 0.850226 0.203845
566 2 0.0499793 0.949482 0.20404
574 2 0.250513 0.949682 0.204008
582 2 0.45041 0.949484 0.203781
590 2 0.649728 0.949606 0.203983
598 2 0.849614 0.950369 0.203776
407 2 0.0498499 0.05051 0.248168
402 1 0.0996612 -0.000422172 0.226035
415 2 0.249432 0.0497528 0.248396
423 2 0.450091 0.0499856 0.248185
431 2 0.649704 0.0499912 0.24825
426 1 0.699488 0.000115495 0.225825
434 1 0.899395 -0.000641755 0.226011
439 2 0.850324 0.0497398 0.24831
404 1 -0.000690743 0.10019 0.225932
405 2 0.150006 0.150117 0.247964
412 1 0.200387 0.100307 0.226358
413 2 0.350212 0.150159 0.24813
420 1 0.400305 0.100297 0.226149
428 1 0.600182 0.100552 0.225905
421 2 0.549408 0.150082 0.247934
429 2 0.75046 0.149688 0.248353
436 1 0.800118 0.0999182 0.226253
437 2 0.950158 0.150098 0.248473
442 1 0.0996126 0.200396 0.226229
450 1 0.300316 0.200112 0.226112
458 1 0.499452 0.200089 0.226057
466 1 0.700175 0.19942 0.226042
474 1 0.900374 0.199951 0.22639
444 1 9.20468e-05 0.300254 0.226016
447 2 0.0498388 0.249942 0.248272
452 1 0.200144 0.300236 0.226303
455 2 0.250551 0.24989 0.247911
460 1 0.400559 0.299875 0.226007
463 2 0.449872 0.249598 0.248176
468 1 0.599486 0.300118 0.226218
471 2 0.649644 0.249664 0.247914
476 1 0.800017 0.29983 0.226103
479 2 0.850207 0.250239 0.247977
445 2 0.149877 0.350397 0.247841
453 2 0.35001 0.350162 0.248129
461 2 0.549847 0.350489 0.247983
469 2 0.750085 0.350488 0.248016
477 2 0.949841 0.349648 0.248242
487 2 0.0499267 0.449559 0.248387
482 1 0.100002 0.399888 0.225834
490 1 0.299921 0.400111 0.225933
495 2 0.249373 0.449684 0.247756
503 2 0.45022 0.450426 0.247868
498 1 0.499681 0.400318 0.226358
511 2 0.650362 0.450472 0.248281
506 1 0.699379 0.399723 0.226087
514 1 0.899943 0.40022 0.226044
519 2 0.850604 0.450055 0.248347
484 1 6.30311e-06 0.499806 0.226297
492 1 0.199611 0.499891 0.225905
500 1 0.399701 0.500009 0.226044
508 1 0.599749 0.499141 0.225913
516 1 0.800698 0.499295 0.225979
522 1 0.100206 0.600021 0.22633
485 2 0.149752 0.550012 0.248344
530 1 0.299781 0.600083 0.226135
493 2 0.350027 0.550107 0.248174
538 1 0.500092 0.599655 0.226199
501 2 0.550267 0.549389 0.24834
546 1 0.70057 0.599956 0.225863
509 2 0.750627 0.549679 0.247923
554 1 0.900278 0.600436 0.226152
517 2 0.949922 0.550444 0.248285
527 2 0.0504468 0.649716 0.24833
535 2 0.249547 0.650255 0.248322
543 2 0.450683 0.650328 0.248147
551 2 0.650547 0.649671 0.248063
559 2 0.849725 0.650163 0.24781
524 1 0.000115338 0.700037 0.226306
525 2 0.149578 0.749675 0.248425
532 1 0.199178 0.699466 0.226157
533 2 0.35032 0.750685 0.247868
540 1 0.399935 0.699883 0.226146
548 1 0.600033 0.69976 0.226297
541 2 0.549822 0.750149 0.248277
549 2 0.749688 0.75001 0.24818
556 1 0.799488 0.700588 0.226113
557 2 0.949633 0.750543 0.248289
562 1 0.100085 0.79986 0.226273
570 1 0.299602 0.79957 0.226034
578 1 0.500478 0.799698 0.225775
586 1 0.700309 0.800005 0.22598
594 1 0.900093 0.799874 0.225863
567 2 0.0503871 0.850556 0.248289
572 1 0.200041 0.899698 0.22611
575 2 0.249941 0.849657 0.248013
580 1 0.400654 0.900153 0.225946
583 2 0.450882 0.849706 0.247724
588 1 0.60007 0.900091 0.226178
591 2 0.649963 0.849771 0.248073
596 1 0.800439 0.8999 0.225708
599 2 0.849742 0.850047 0.247851
564 1 1.00016 0.899927 0.226113
565 2 0.150443 0.950045 0.248252
410 1 0.300124 1.00032 0.226273
573 2 0.350365 0.950064 0.248057
418 1 0.500397 0.999404 0.226165
581 2 0.55023 0.949744 0.248381
589 2 0.749573 0.94938 0.247859
597 2 0.950384 0.950473 0.248201
601 1 0.000122576 0.000410407 0.270386
608 2 0.14953 0.0505572 0.292426
609 1 0.199445 7.36137e-05 0.270564
616 2 0.350148 0.0499586 0.291754
617 1 0.400236 -0.000557334 0.269922
624 2 0.549752 0.0498019 0.292249
625 1 0.599834 0.000235867 0.270111
632 2 0.750054 0.0496911 0.292123
633 1 0.799715 -0.000711441 0.270198
640 2 0.950164 0.0496739 0.292458
606 2 0.0497486 0.149615 0.292279
603 1 0.10036 0.100527 0.270151
611 1 0.299547 0.100091 0.270249
614 2 0.250162 0.150424 0.292044
622 2 0.450297 0.150172 0.292316
619 1 0.499611 0.0996169 0.270016
630 2 0.649276 0.149959 0.291894
627 1 0.699611 0.0994825 0.270294
635 1 0.900582 0.100072 0.270396
638 2 0.850115 0.14975 0.292262
641 1 -6.31719e-05 0.20001 0.270444
649 1 0.200042 0.200353 0.269931
657 1 0.400529 0.200135 0.27005
665 1 0.599348 0.200507 0.269927
673 1 0.800687 0.200351 0.270318
643 1 0.100581 0.300062 0.270001
648 2 0.1496 0.249629 0.292447
651 1 0.299966 0.299792 0.270105
656 2 0.350064 0.249541 0.292228
659 1 0.499817 0.299879 0.269907
664 2 0.549472 0.25023 0.292337
667 1 0.700305 0.29968 0.270073
672 2 0.749973 0.249608 0.292284
675 1 0.900078 0.299385 0.270288
680 2 0.95056 0.250378 0.292221
646 2 0.0503516 0.349968 0.292363
654 2 0.249789 0.349879 0.291814
662 2 0.449653 0.349771 0.292326
670 2 0.650259 0.349389 0.292076
678 2 0.850002 0.349958 0.291919
681 1 0.000157481 0.399821 0.270436
688 2 0.14987 0.449878 0.29238
689 1 0.199757 0.399669 0.269855
696 2 0.350565 0.450081 0.291889
697 1 0.400377 0.400136 0.269885
704 2 0.550347 0.449495 0.292222
705 1 0.600619 0.399739 0.270272
712 2 0.749618 0.449725 0.292077
713 1 0.800211 0.400553 0.270039
720 2 0.949833 0.449793 0.291962
683 1 0.0998756 0.499598 0.270378
691 1 0.299704 0.499681 0.269939
699 1 0.499931 0.499642 0.270335
707 1 0.700386 0.500182 0.270128
715 1 0.90043 0.500066 0.270077
686 2 0.0494364 0.549534 0.292402
721 1 0.000486539 0.599943 0.270057
729 1 0.199613 0.600263 0.270142
694 2 0.250187 0.549991 0.292002
702 2 0.450274 0.55045 0.291834
737 1 0.400223 0.600119 0.269789
745 1 0.60006 0.600459 0.270228
710 2 0.650247 0.550162 0.292167
753 1 0.800308 0.600272 0.270154
718 2 0.850143 0.549683 0.292016
728 2 0.149682 0.64991 0.292378
736 2 0.350395 0.650164 0.291951
744 2 0.549669 0.650434 0.292052
752 2 0.749793 0.650488 0.292021
760 2 0.950139 0.649945 0.292033
726 2 0.0498622 0.750405 0.292124
723 1 0.0997379 0.699923 0.270386
731 1 0.300506 0.700217 0.269948
734 2 0.249721 0.749614 0.292347
742 2 0.449697 0.749727 0.292213
739 1 0.499983 0.700653 0.270257
750 2 0.649364 0.749699 0.292163
747 1 0.699502 0.700276 0.269903
755 1 0.899866 0.699482 0.270131
758 2 0.849822 0.749836 0.292008
761 1 0.000177822 0.800804 0.270389
769 1 0.199905 0.799584 0.270129
777 1 0.400508 0.800526 0.270065
785 1 0.599857 0.800212 0.270195
793 1 0.800076 0.799969 0.269956
763 1 0.10038 0.900579 0.270357
768 2 0.150143 0.850174 0.291996
771 1 0.300095 0.900439 0.269984
776 2 0.35022 0.850327 0.292205
779 1 0.500592 0.899624 0.270054
784 2 0.550502 0.850322 0.292485
787 1 0.699889 0.899368 0.270313
792 2 0.750183 0.849592 0.292258
795 1 0.899565 0.899733 0.269829
800 2 0.949352 0.85041 0.292217
766 2 0.0501213 0.949963 0.292386
774 2 0.249659 0.949883 0.292438
782 2 0.450603 0.94981 0.292191
790 2 0.649361 0.949625 0.292212
798 2 0.85032 0.949805 0.292198
602 1 0.0999001 -0.000254486 0.314014
610 1 0.300033 0.000208386 0.313965
618 1 0.500412 0.00019791 0.31409
634 1 0.899518 0.000494493 0.314538
604 1 -0.00022456 0.0999373 0.314082
612 1 0.200261 0.0997803 0.314309
620 1 0.399687 0.100179 0.314101
628 1 0.600008 0.0995305 0.314388
636 1 0.80013 0.0997805 0.314057
642 1 0.0994684 0.199625 0.314214
650 1 0.299526 0.200057 0.314376
658 1 0.499961 0.200157 0.31396
666 1 0.699914 0.199973 0.314264
674 1 0.900529 0.200133 0.31382
644 1 0.000429727 0.300047 0.314091
652 1 0.200319 0.300012 0.313875
660 1 0.399506 0.300086 0.314185
668 1 0.59956 0.300313 0.31406
676 1 0.799476 0.300383 0.314039
682 1 0.0999926 0.400256 0.314535
690 1 0.300142 0.400316 0.314036
698 1 0.499735 0.399909 0.314336
706 1 0.699641 0.399869 0.314251
714 1 0.899774 0.39998 0.314052
684 1 -0.000899345 0.499977 0.314215
692 1 0.200493 0.499927 0.314273
700 1 0.400552 0.500354 0.313932
708 1 0.600157 0.500356 0.314395
716 1 0.800237 0.499536 0.314232
722 1 0.0993154 0.599954 0.314366
730 1 0.300137 0.599689 0.314092
738 1 0.499705 0.600381 0.313929
746 1 0.70016 0.600598 0.314372
754 1 0.900104 0.599524 0.314256
724 1 -0.000622121 0.70042 0.314036
732 1 0.19994 0.69993 0.314319
740 1 0.400268 0.700009 0.314177
748 1 0.599996 0.700018 0.314412
756 1 0.799519 0.70037 0.314038
762 1 0.100535 0.799703 0.314338
770 1 0.300115 0.799981 0.314073
778 1 0.500531 0.799261 0.313912
786 1 0.699533 0.799606 0.314052
794 1 0.899217 0.80009 0.314172
764 1 -0.000202372 0.899967 0.314349
772 1 0.199368 0.90019 0.314192
780 1 0.400107 0.899676 0.314469
788 1 0.599717 0.900466 0.314531
796 1 0.800036 0.900438 0.313841
626 1 0.699842 0.999804 0.314162
607 2 0.0502795 0.0498166 0.336084
801 1 -0.00021126 9.52187e-05 0.35802
809 1 0.19945 -0.00051835 0.357962
615 2 0.24996 0.0496029 0.336304
623 2 0.449524 0.049632 0.336069
817 1 0.399468 -0.000252162 0.358262
825 1 0.600069 -6.12046e-05 0.358258
631 2 0.650355 0.0503311 0.336448
833 1 0.800212 0.000106599 0.35807
639 2 0.84974 0.0507422 0.336438
605 2 0.149483 0.149641 0.335936
803 1 0.100043 0.100183 0.358206
811 1 0.300348 0.0994833 0.357866
613 2 0.349694 0.150119 0.33615
819 1 0.499414 0.0996975 0.358135
621 2 0.549374 0.150057 0.336073
629 2 0.750035 0.149633 0.336209
827 1 0.700257 0.100275 0.358152
835 1 0.899892 0.100157 0.358137
637 2 0.949645 0.150391 0.336193
841 1 3.68282e-05 0.199927 0.35836
849 1 0.199196 0.199623 0.358391
857 1 0.399896 0.200214 0.358094
865 1 0.59977 0.200026 0.358024
873 1 0.800158 0.199902 0.357823
647 2 0.0498436 0.249735 0.336049
843 1 0.099761 0.300401 0.358
655 2 0.249728 0.250045 0.336325
851 1 0.300047 0.299899 0.35847
663 2 0.450305 0.249687 0.335895
859 1 0.500423 0.29963 0.358273
671 2 0.649788 0.250189 0.336291
867 1 0.6995 0.299594 0.358278
679 2 0.850178 0.249999 0.335857
875 1 0.899866 0.300396 0.358404
645 2 0.150256 0.349755 0.336007
653 2 0.349417 0.350145 0.336209
661 2 0.550289 0.350598 0.336063
669 2 0.749574 0.349582 0.336463
677 2 0.950149 0.350238 0.336052
687 2 0.049699 0.450591 0.335971
881 1 0.000400421 0.400321 0.358026
889 1 0.199601 0.400523 0.357946
695 2 0.250578 0.450005 0.336265
703 2 0.450295 0.450347 0.336495
897 1 0.399593 0.399755 0.35803
905 1 0.60031 0.400585 0.358091
711 2 0.649953 0.450581 0.336241
913 1 0.800405 0.39961 0.358176
719 2 0.850308 0.45005 0.336433
883 1 0.0998342 0.499613 0.358363
891 1 0.299968 0.500248 0.358348
899 1 0.500484 0.499938 0.358477
907 1 0.700177 0.49966 0.358481
915 1 0.899684 0.500129 0.358065
921 1 0.000317017 0.600155 0.358383
685 2 0.150284 0.549667 0.336038
929 1 0.200466 0.599945 0.358047
693 2 0.3502 0.549468 0.335992
937 1 0.400342 0.599269 0.358184
701 2 0.549682 0.550246 0.336405
945 1 0.599472 0.599977 0.358585
709 2 0.749796 0.5496 0.336221
953 1 0.800289 0.599547 0.358072
717 2 0.950109 0.550152 0.336457
727 2 0.0493025 0.650612 0.336052
735 2 0.250182 0.65011 0.335997
743 2 0.450243 0.650291 0.336214
751 2 0.649505 0.649926 0.336624
759 2 0.849765 0.649977 0.335914
725 2 0.150238 0.749892 0.336359
923 1 0.0994335 0.700254 0.357878
931 1 0.299955 0.700114 0.358442
733 2 0.350287 0.749751 0.336436
939 1 0.499919 0.70021 0.358078
741 2 0.550213 0.750107 0.336457
749 2 0.749308 0.749772 0.336345
947 1 0.699828 0.699729 0.358534
955 1 0.899459 0.699697 0.358393
757 2 0.949307 0.750082 0.336312
961 1 -0.000267658 0.799912 0.35836
969 1 0.199877 0.800573 0.358304
977 1 0.399695 0.800203 0.358483
985 1 0.600073 0.800197 0.358178
993 1 0.799486 0.799805 0.358259
767 2 0.0497978 0.849335 0.336067
963 1 0.0993989 0.899594 0.35837
775 2 0.249707 0.850606 0.336017
971 1 0.300109 0.899756 0.358433
783 2 0.450462 0.849221 0.336118
979 1 0.500284 0.899868 0.358144
791 2 0.650103 0.850266 0.33622
987 1 0.699987 0.899743 0.358201
799 2 0.849157 0.850312 0.336053
995 1 0.899799 0.899761 0.357922
765 2 0.149713 0.949437 0.336159
773 2 0.349375 0.949594 0.336064
781 2 0.55027 0.950328 0.336143
789 2 0.74991 0.949601 0.336054
797 2 0.95009 0.950339 0.336341
808 2 0.149904 0.0498295 0.380217
802 1 0.100232 0.000375923 0.402466
810 1 0.300251 -0.000399139 0.402184
816 2 0.349772 0.050021 0.380101
818 1 0.500186 0.00037155 0.402605
824 2 0.549853 0.0497131 0.3801
832 2 0.749438 0.0495853 0.380021
826 1 0.699892 0.000278305 0.402246
834 1 0.899804 0.000328822 0.402302
840 2 0.94998 0.0500183 0.38
806 2 0.049965 0.149981 0.380395
804 1 0.000129785 0.0994997 0.402378
812 1 0.199677 0.0999276 0.402259
814 2 0.249633 0.149177 0.379865
822 2 0.449624 0.149696 0.380457
820 1 0.39987 0.099657 0.402432
828 1 0.600095 0.0998049 0.402226
830 2 0.649563 0.149861 0.380019
836 1 0.799132 0.100025 0.401877
838 2 0.849482 0.150033 0.379937
842 1 0.100359 0.200304 0.402311
850 1 0.299339 0.199724 0.401975
858 1 0.500199 0.20044 0.402426
866 1 0.699562 0.200251 0.401993
874 1 0.900333 0.199589 0.402059
844 1 -3.49898e-05 0.299921 0.402195
848 2 0.149936 0.25073 0.380307
852 1 0.2004 0.300049 0.402258
856 2 0.349647 0.249995 0.380311
860 1 0.399534 0.29947 0.40245
864 2 0.550011 0.249633 0.380062
868 1 0.599737 0.299929 0.402375
872 2 0.750055 0.249667 0.37988
876 1 0.800194 0.2998 0.40202
880 2 0.950406 0.250048 0.380216
846 2 0.0504179 0.350602 0.380057
854 2 0.249933 0.350572 0.380126
862 2 0.449445 0.349348 0.380447
870 2 0.649739 0.34951 0.38016
878 2 0.849918 0.350168 0.380374
888 2 0.150206 0.450462 0.380428
882 1 0.100092 0.400289 0.4026
890 1 0.300055 0.399914 0.40239
896 2 0.349732 0.449925 0.380408
898 1 0.499836 0.399849 0.402454
904 2 0.549761 0.4501 0.380308
912 2 0.750629 0.44968 0.38043
906 1 0.699331 0.400138 0.402105
914 1 0.899823 0.399573 0.402217
920 2 0.949778 0.4503 0.380169
884 1 0.000181062 0.499638 0.402407
892 1 0.200545 0.500351 0.402103
900 1 0.399462 0.500533 0.402468
908 1 0.600302 0.499826 0.402161
916 1 0.800616 0.499865 0.402289
886 2 0.0499198 0.550115 0.380156
922 1 0.0996943 0.600598 0.402252
894 2 0.250331 0.550047 0.379996
930 1 0.300205 0.599296 0.402385
902 2 0.450435 0.549448 0.380376
938 1 0.499499 0.599725 0.40237
910 2 0.650118 0.550379 0.380025
946 1 0.699981 0.600173 0.402431
918 2 0.850273 0.549861 0.380305
954 1 0.900266 0.599771 0.402283
928 2 0.149894 0.650361 0.379853
936 2 0.35008 0.64938 0.380145
944 2 0.5499 0.650495 0.380592
952 2 0.749911 0.649777 0.380062
960 2 0.949981 0.649564 0.380096
926 2 0.0499357 0.749943 0.380089
932 1 0.200292 0.699903 0.402149
934 2 0.250323 0.750479 0.380329
942 2 0.450427 0.750457 0.38004
940 1 0.400085 0.700361 0.40236
948 1 0.60048 0.700655 0.402461
950 2 0.649667 0.750399 0.380087
956 1 0.799602 0.70004 0.402028
958 2 0.849441 0.750219 0.380363
924 1 0.999548 0.699971 0.402464
962 1 0.0996919 0.799643 0.402113
970 1 0.300195 0.800416 0.402442
978 1 0.500142 0.799659 0.402547
986 1 0.699923 0.799995 0.402039
994 1 0.899436 0.80045 0.402191
964 1 0.000232702 0.900081 0.402314
968 2 0.149978 0.850416 0.380244
972 1 0.199874 0.900667 0.402124
976 2 0.349924 0.850143 0.380519
980 1 0.400149 0.899637 0.402173
984 2 0.549853 0.85025 0.380392
988 1 0.600345 0.900782 0.402044
992 2 0.749903 0.850149 0.38028
996 1 0.800294 0.899827 0.402061
1000 2 0.949779 0.850465 0.38032
966 2 0.0502104 0.950477 0.380291
974 2 0.25016 0.950322 0.38016
982 2 0.450227 0.950363 0.380478
990 2 0.650515 0.950572 0.379921
998 2 0.850401 0.949883 0.380347
807 2 0.049864 0.0493545 0.424334
815 2 0.250403 0.0497614 0.424229
823 2 0.449579 0.0498939 0.424459
831 2 0.649769 0.0503089 0.424571
839 2 0.849708 0.0503993 0.424144
805 2 0.150054 0.149708 0.424456
813 2 0.34983 0.150272 0.424232
821 2 0.549897 0.149707 0.424082
829 2 0.749235 0.149859 0.424228
837 2 0.950009 0.150144 0.424405
847 2 0.0497053 0.250054 0.424452
855 2 0.250451 0.25 0.424549
863 2 0.45022 0.250425 0.424528
871 2 0.650373 0.249963 0.424368