ITEM: TIMESTEP
300
ITEM: NUMBER OF ATOMS
1250
ITEM: BOX BOUNDS pp pp pp
0.0000000000000000e+00 3.2000000000000000e+01
0.0000000000000000e+00 3.2000000000000000e+01
-1.2800000000000001e+01 5.1200000000000003e+01
ITEM: ATOMS id type xs ys zs
1 1 0 0 0
8 2 0.15 0.05 0.025
9 1 0.2 0 0
16 2 0.35 0.05 0.025
17 1 0.4 0 0
24 2 0.55 0.05 0.025
25 1 0.6 0 0
32 2 0.75 0.05 0.025
33 1 0.8 0 0
40 2 0.95 0.05 0.025
6 2 0.05 0.15 0.025
3 1 0.1 0.1 0
11 1 0.3 0.1 0
14 2 0.25 0.15 0.025
22 2 0.45 0.15 0.025
19 1 0.5 0.1 0
30 2 0.65 0.15 0.025
27 1 0.7 0.1 0
35 1 0.9 0.1 0
38 2 0.85 0.15 0.025
41 1 0 0.2 0
49 1 0.2 0.2 0
57 1 0.4 0.2 0
65 1 0.6 0.2 0
73 1 0.8 0.2 0
43 1 0.1 0.3 0
48 2 0.15 0.25 0.025
51 1 0.3 0.3 0
56 2 0.35 0.25 0.025
59 1 0.5 0.3 0
64 2 0.55 0.25 0.025
67 1 0.7 0.3 0
72 2 0.75 0.25 0.025
75 1 0.9 0.3 0
80 2 0.95 0.25 0.025
46 2 0.05 0.35 0.025
81 1 0 0.4 0
89 1 0.2 0.4 0
54 2 0.25 0.35 0.025
97 1 0.4 0.4 0
62 2 0.45 0.35 0.025
70 2 0.65 0.35 0.025
105 1 0.6 0.4 0
113 1 0.8 0.4 0
78 2 0.85 0.35 0.025
88 2 0.15 0.45 0.025
96 2 0.35 0.45 0.025
104 2 0.55 0.45 0.025
112 2 0.75 0.45 0.025
120 2 0.95 0.45 0.025
86 2 0.05 0.55 0.025
83 1 0.1 0.5 0
91 1 0.3 0.5 0
94 2 0.25 0.55 0.025
102 2 0.45 0.55 0.025
99 1 0.5 0.5 0
110 2 0.65 0.55 0.025
107 1 0.7 0.5 0
115 1 0.9 0.5 0
118 2 0.85 0.55 0.025
121 1 0 0.6 0
128 2 0.15 0.65 0.025
129 1 0.2 0.6 0
136 2 0.35 0.65 0.025
137 1 0.4 0.6 0
144 2 0.55 0.65 0.025
145 1 0.6 0.6 0
152 2 0.75 0.65 0.025
153 1 0.8 0.6 0
160 2 0.95 0.65 0.025
123 1 0.1 0.7 0
131 1 0.3 0.7 0
139 1 0.5 0.7 0
147 1 0.7 0.7 0
155 1 0.9 0.7 0
126 2 0.05 0.75 0.025
161 1 0 0.8 0
169 1 0.2 0.8 0
134 2 0.25 0.75 0.025
177 1 0.4 0.8 0
142 2 0.45 0.75 0.025
150 2 0.65 0.75 0.025
185 1 0.6 0.8 0
193 1 0.8 0.8 0
158 2 0.85 0.75 0.025
163 1 0.1 0.9 0
168 2 0.15 0.85 0.025
171 1 0.3 0.9 0
176 2 0.35 0.85 0.025
179 1 0.5 0.9 0
184 2 0.55 0.85 0.025
187 1 0.7 0.9 0
192 2 0.75 0.85 0.025
195 1 0.9 0.9 0
200 2 0.95 0.85 0.025
166 2 0.05 0.95 0.025
174 2 0.25 0.95 0.025
182 2 0.45 0.95 0.025
190 2 0.65 0.95 0.025
198 2 0.85 0.95 0.025
7 2 0.0500669 0.0503546 0.0788497
2 1 0.1 0 0.05
15 2 0.249768 0.0500096 0.0790084
10 1 0.3 0 0.05
23 2 0.450219 0.0501408 0.0790212
18 1 0.5 0 0.05
31 2 0.650088 0.0499501 0.0788849
26 1 0.7 0 0.05
34 1 0.9 0 0.05
39 2 0.850331 0.0501293 0.07885
4 1 0 0.1 0.05
5 2 0.149825 0.150151 0.0786785
12 1 0.2 0.1 0.05
13 2 0.349904 0.150222 0.0790382
20 1 0.4 0.1 0.05
21 2 0.550242 0.150344 0.0786806
28 1 0.6 0.1 0.05
29 2 0.75038 0.149829 0.0786984
36 1 0.8 0.1 0.05
37 2 0.950222 0.149733 0.078997
47 2 0.0496747 0.250243 0.0786253
42 1 0.1 0.2 0.05
55 2 0.249822 0.250225 0.0789783
50 1 0.3 0.2 0.05
58 1 0.5 0.2 0.05
71 2 0.650383 0.249645 0.0788364
66 1 0.7 0.2 0.05
74 1 0.9 0.2 0.05
44 1 0 0.3 0.05
52 1 0.2 0.3 0.05
60 1 0.4 0.3 0.05
63 2 0.449865 0.249749 0.0788908
68 1 0.6 0.3 0.05
76 1 0.8 0.3 0.05
79 2 0.849828 0.250409 0.0787936
45 2 0.149525 0.350257 0.0787783
82 1 0.1 0.4 0.05
90 1 0.3 0.4 0.05
53 2 0.349824 0.349966 0.0787205
61 2 0.550382 0.349962 0.0788672
98 1 0.5 0.4 0.05
106 1 0.7 0.4 0.05
69 2 0.750156 0.349652 0.0788328
114 1 0.9 0.4 0.05
77 2 0.949952 0.350187 0.0789255
87 2 0.0496721 0.44969 0.0788064
95 2 0.250237 0.450124 0.0789339
103 2 0.449981 0.450147 0.0787079
111 2 0.650109 0.449542 0.0789147
119 2 0.850025 0.449475 0.078724
84 1 0 0.5 0.05
85 2 0.149628 0.549914 0.078783
92 1 0.2 0.5 0.05
93 2 0.349941 0.550311 0.0789885
100 1 0.4 0.5 0.05
101 2 0.550181 0.550436 0.079003
108 1 0.6 0.5 0.05
109 2 0.750323 0.549673 0.0789298
116 1 0.8 0.5 0.05
117 2 0.950011 0.550354 0.0788137
127 2 0.0504005 0.650303 0.0786714
122 1 0.1 0.6 0.05
130 1 0.3 0.6 0.05
135 2 0.249692 0.649787 0.0789359
143 2 0.450102 0.650398 0.0787614
138 1 0.5 0.6 0.05
151 2 0.649767 0.650099 0.0787282
146 1 0.7 0.6 0.05
154 1 0.9 0.6 0.05
159 2 0.850051 0.650197 0.0789809
124 1 0 0.7 0.05
125 2 0.150565 0.750184 0.0790316
132 1 0.2 0.7 0.05
140 1 0.4 0.7 0.05
133 2 0.350107 0.749795 0.0787366
148 1 0.6 0.7 0.05
156 1 0.8 0.7 0.05
157 2 0.950047 0.750285 0.0788639
162 1 0.1 0.8 0.05
170 1 0.3 0.8 0.05
141 2 0.549745 0.750278 0.0790379
178 1 0.5 0.8 0.05
186 1 0.7 0.8 0.05
149 2 0.749877 0.750037 0.0788263
194 1 0.9 0.8 0.05
164 1 0 0.9 0.05
167 2 0.0499332 0.850349 0.0786598
172 1 0.2 0.9 0.05
175 2 0.250433 0.850106 0.0789529
180 1 0.4 0.9 0.05
183 2 0.450234 0.850336 0.0787895
188 1 0.6 0.9 0.05
191 2 0.650223 0.849579 0.0790222
196 1 0.8 0.9 0.05
199 2 0.850236 0.849864 0.0789715
165 2 0.149516 0.949754 0.0790125
173 2 0.349948 0.949907 0.079002
181 2 0.549504 0.949717 0.0788056
189 2 0.750344 0.950102 0.078686
197 2 0.949687 0.949809 0.0788151
209 1 0.199859 -0.000346272 0.107609
217 1 0.39962 0.0004892 0.107646
225 1 0.599382 -0.000181831 0.107561
233 1 0.800378 -7.24105e-05 0.107414
203 1 0.100304 0.100219 0.10738
211 1 0.299926 0.100224 0.10764
219 1 0.500402 0.100527 0.10739
227 1 0.700228 0.100261 0.107396
235 1 0.900092 0.100122 0.107522
241 1 0.000138998 0.200212 0.107546
249 1 0.200239 0.199651 0.107549
257 1 0.40012 0.200056 0.107757
265 1 0.599871 0.200316 0.107642
273 1 0.799841 0.200199 0.107426
243 1 0.0997761 0.299573 0.107558
251 1 0.299834 0.299942 0.107461
259 1 0.499988 0.299745 0.10753
267 1 0.70035 0.299796 0.107667
275 1 0.90014 0.300226 0.107688
289 1 0.199966 0.39998 0.107572
297 1 0.400105 0.400071 0.107436
305 1 0.60018 0.399555 0.107833
313 1 0.800058 0.399926 0.107663
281 1 0.999993 0.399645 0.107618
299 1 0.500277 0.500317 0.107727
307 1 0.700165 0.500157 0.10756
283 1 0.100023 0.500009 0.107434
291 1 0.299718 0.500019 0.107711
315 1 0.899793 0.499632 0.107562
329 1 0.199513 0.599764 0.107618
337 1 0.400323 0.600403 0.107831
345 1 0.60051 0.599737 0.10759
353 1 0.799589 0.600026 0.107503
321 1 0.999894 0.600634 0.107615
323 1 0.100098 0.700084 0.107448
331 1 0.300161 0.69989 0.107428
339 1 0.499606 0.70046 0.107815
347 1 0.700243 0.69979 0.107721
355 1 0.899965 0.700154 0.107612
361 1 0.000246796 0.800241 0.107548
369 1 0.200627 0.800411 0.10761
377 1 0.399728 0.800323 0.107636
385 1 0.599976 0.800067 0.107855
393 1 0.799659 0.800036 0.107715
363 1 0.0996991 0.899556 0.10755
371 1 0.300035 0.900016 0.107856
379 1 0.49998 0.899667 0.107715
387 1 0.700402 0.900117 0.107511
395 1 0.899898 0.899628 0.107701
201 1 3.74381e-05 1.00025 0.107608
208 2 0.14971 0.050294 0.136217
216 2 0.349812 0.0503511 0.136266
218 1 0.499823 -9.70129e-05 0.16506
224 2 0.549564 0.0503485 0.136541
226 1 0.699793 -0.000245174 0.164962
232 2 0.750092 0.050134 0.136282
234 1 0.9006 -0.000412729 0.164964
240 2 0.950012 0.0503204 0.136228
204 1 -0.000250256 0.100107 0.165089
206 2 0.0503392 0.150102 0.136268
212 1 0.199889 0.10019 0.165282
214 2 0.250095 0.150234 0.136468
220 1 0.399984 0.0995397 0.165021
222 2 0.449864 0.149696 0.136199
228 1 0.599741 0.100342 0.165204
230 2 0.650088 0.149894 0.136192
236 1 0.799809 0.0997319 0.165092
238 2 0.849526 0.149804 0.13647
242 1 0.100524 0.199899 0.16518
250 1 0.300281 0.199865 0.165396
256 2 0.350052 0.25002 0.1364
258 1 0.499559 0.199941 0.165103
264 2 0.549948 0.250066 0.136449
266 1 0.700121 0.199917 0.16491
272 2 0.750269 0.249709 0.136378
274 1 0.899524 0.199763 0.16523
280 2 0.949842 0.249512 0.136273
248 2 0.149932 0.250182 0.136232
252 1 0.200022 0.300356 0.165069
260 1 0.400327 0.299582 0.165319
268 1 0.600137 0.300229 0.165189
276 1 0.800064 0.300289 0.165095
244 1 1.00002 0.299678 0.164949
246 2 0.0504168 0.349681 0.136277
282 1 0.100074 0.399725 0.165232
254 2 0.24983 0.350112 0.136184
290 1 0.299676 0.39949 0.165382
262 2 0.449807 0.349986 0.136524
298 1 0.500134 0.399795 0.165287
270 2 0.650378 0.350134 0.136428
306 1 0.700169 0.399793 0.165084
278 2 0.849908 0.35033 0.136278
314 1 0.89971 0.399928 0.165197
284 1 6.74357e-05 0.499801 0.165087
288 2 0.150176 0.449742 0.136487
296 2 0.349932 0.449943 0.136611
304 2 0.550001 0.449828 0.136364
308 1 0.600038 0.499909 0.16507
312 2 0.750204 0.450037 0.136303
320 2 0.949819 0.450067 0.136472
286 2 0.0500014 0.54989 0.136223
292 1 0.200222 0.499739 0.165115
294 2 0.249641 0.55003 0.136242
300 1 0.400317 0.500461 0.165116
302 2 0.45032 0.550339 0.136487
310 2 0.649986 0.550013 0.136311
316 1 0.799939 0.500315 0.165027
318 2 0.849774 0.550204 0.136101
322 1 0.100312 0.600034 0.165245
328 2 0.150102 0.650375 0.136353
330 1 0.300013 0.600257 0.165087
336 2 0.349827 0.650281 0.136528
338 1 0.500451 0.599737 0.165002
344 2 0.54997 0.649611 0.136196
346 1 0.700018 0.600322 0.165124
352 2 0.749997 0.649941 0.136393
354 1 0.899732 0.599315 0.165327
360 2 0.949402 0.650115 0.136417
324 1 0.000402816 0.699608 0.165002
332 1 0.200469 0.700038 0.165238
340 1 0.399849 0.699603 0.165221
348 1 0.599888 0.699622 0.165122
350 2 0.650468 0.749979 0.136615
356 1 0.800378 0.70018 0.16531
326 2 0.049765 0.749833 0.136198
362 1 0.10015 0.800067 0.165019
334 2 0.250371 0.750227 0.136395
370 1 0.300004 0.799818 0.165301
342 2 0.450059 0.750331 0.136714
378 1 0.500421 0.800274 0.165367
386 1 0.700598 0.79996 0.165396
358 2 0.850277 0.750101 0.136217
394 1 0.899836 0.799561 0.165211
364 1 0.000403604 0.900008 0.16511
368 2 0.150113 0.849908 0.136213
372 1 0.199503 0.899865 0.165278
376 2 0.349706 0.850206 0.136618
380 1 0.400441 0.900176 0.165161
384 2 0.55047 0.850473 0.136395
388 1 0.60061 0.899966 0.165198
392 2 0.75012 0.850398 0.13662
396 1 0.800373 0.899835 0.165482
400 2 0.950254 0.84967 0.136584
366 2 0.0501677 0.950377 0.136297
202 1 0.100182 1.00013 0.16523
210 1 0.299654 1.00026 0.165037
374 2 0.249516 0.949608 0.136429
382 2 0.450023 0.950436 0.136129
390 2 0.649613 0.949862 0.136194
398 2 0.850211 0.950083 0.136346
207 2 0.0500544 0.0500263 0.193849
215 2 0.249976 0.0497298 0.193861
223 2 0.450295 0.0495471 0.193888
231 2 0.649853 0.0501247 0.193889
239 2 0.850064 0.0495318 0.193597
205 2 0.150288 0.150107 0.19406
213 2 0.35032 0.149697 0.194171
221 2 0.549498 0.150272 0.194062
229 2 0.749968 0.149774 0.193749
237 2 0.94949 0.149505 0.193982
271 2 0.650328 0.249592 0.19393
247 2 0.0503174 0.250004 0.193977
255 2 0.249777 0.249722 0.194015
263 2 0.44981 0.249808 0.193902
279 2 0.849622 0.250135 0.193758
245 2 0.149788 0.350218 0.193824
253 2 0.350461 0.349629 0.194152
261 2 0.55011 0.349843 0.193895
269 2 0.750039 0.349955 0.193775
277 2 0.950084 0.349876 0.193857
287 2 0.0501662 0.45005 0.193914
295 2 0.249568 0.450225 0.194189
303 2 0.450218 0.450132 0.193906
311 2 0.649738 0.449826 0.193761
319 2 0.849737 0.450092 0.193947
285 2 0.149787 0.549787 0.19413
293 2 0.350332 0.550376 0.19378
301 2 0.549968 0.549857 0.193974
309 2 0.749866 0.549839 0.194069
317 2 0.950403 0.549469 0.194065
327 2 0.0500962 0.650037 0.193791
335 2 0.250142 0.649517 0.194145
343 2 0.450443 0.649735 0.193744
351 2 0.6497 0.650222 0.194002
359 2 0.850258 0.649706 0.193971
349 2 0.750483 0.750281 0.194204
357 2 0.950448 0.749648 0.193654
325 2 0.15026 0.750302 0.193736
333 2 0.350069 0.74945 0.193991
341 2 0.550219 0.74978 0.19404
367 2 0.0504188 0.849717 0.193782
375 2 0.249502 0.84957 0.193794
383 2 0.449828 0.849936 0.193906
391 2 0.650574 0.850126 0.194095
399 2 0.850676 0.849713 0.194236
365 2 0.150059 0.949978 0.193904
373 2 0.349619 0.950148 0.193885
381 2 0.549865 0.949729 0.193713
389 2 0.749535 0.950163 0.194053
397 2 0.94978 0.94952 0.193954
409 1 0.199789 3.21429e-05 0.222872
417 1 0.399709 -0.000198822 0.222869
433 1 0.799582 0.000363933 0.222541
403 1 0.100094 0.100107 0.222851
411 1 0.299407 0.0998423 0.222889
419 1 0.500143 0.0997718 0.222807
427 1 0.699509 0.10043 0.222595
435 1 0.899603 0.0994855 0.222727
441 1 -0.000288778 0.199529 0.222578
449 1 0.199971 0.199912 0.222848
457 1 0.399876 0.200491 0.222933
465 1 0.599435 0.200492 0.222816
473 1 0.80003 0.200019 0.222537
443 1 0.0999849 0.300165 0.22269
451 1 0.300061 0.299458 0.222765
459 1 0.499867 0.300029 0.222549
467 1 0.70011 0.29963 0.222713
475 1 0.89989 0.299658 0.222699
481 1 0.000455963 0.399836 0.222569
489 1 0.199364 0.399827 0.222866
497 1 0.399932 0.400488 0.222882
505 1 0.600037 0.399918 0.222788
513 1 0.79988 0.399929 0.222518
483 1 0.0996132 0.500265 0.222895
491 1 0.300114 0.500256 0.222682
499 1 0.500377 0.499766 0.222881
507 1 0.699506 0.500051 0.222584
515 1 0.899607 0.499803 0.222807
529 1 0.199909 0.599813 0.222859
537 1 0.399845 0.600063 0.22252
545 1 0.600145 0.599706 0.222547
553 1 0.799941 0.600086 0.222681
521 1 1.00054 0.599634 0.22261
523 1 0.100427 0.700356 0.222572
531 1 0.299634 0.699616 0.22289
539 1 0.500124 0.700418 0.222866
547 1 0.699971 0.700296 0.222552
555 1 0.900492 0.700077 0.222549
569 1 0.19982 0.799776 0.222883
577 1 0.400105 0.800063 0.222691
585 1 0.600312 0.800227 0.222845
593 1 0.800585 0.800268 0.222868
561 1 1.00034 0.800033 0.22246
563 1 0.10039 0.899648 0.222662
571 1 0.299619 0.89959 0.222539
579 1 0.500159 0.899596 0.222503
587 1 0.700147 0.900055 0.222923
595 1 0.900239 0.90043 0.222915
425 1 0.599772 0.999964 0.222514
401 1 0.999725 0.999859 0.222766
408 2 0.150043 0.0503038 0.251744
402 1 0.0997145 -0.000358162 0.280199
416 2 0.349747 0.0502279 0.251626
424 2 0.550383 0.0496213 0.251505
432 2 0.749982 0.050509 0.251377
434 1 0.899512 -0.000515682 0.280176
440 2 0.949517 0.0495126 0.251652
406 2 0.0499083 0.149865 0.251489
412 1 0.200324 0.100231 0.280424
414 2 0.249843 0.150452 0.251608
420 1 0.400275 0.100263 0.280275
422 2 0.449732 0.149867 0.251366
430 2 0.649655 0.15057 0.251284
428 1 0.600152 0.100456 0.280103
436 1 0.800041 0.0999338 0.28035
438 2 0.850309 0.1501 0.251632
404 1 0.999464 0.100166 0.280127
442 1 0.0996843 0.200342 0.280331
450 1 0.300242 0.200103 0.280252
456 2 0.349953 0.249998 0.251714
464 2 0.549762 0.250154 0.251573
458 1 0.499591 0.200078 0.280204
466 1 0.700125 0.199525 0.280198
474 1 0.900262 0.199933 0.280448
480 2 0.950385 0.250213 0.251434
448 2 0.150087 0.249986 0.251346
452 1 0.200122 0.300207 0.280389
460 1 0.400468 0.299892 0.280181
468 1 0.599588 0.300101 0.280323
472 2 0.750234 0.249881 0.251372
476 1 0.800011 0.299822 0.280241
444 1 1.00004 0.300225 0.280194
446 2 0.0502237 0.349657 0.25134
482 1 0.100032 0.399906 0.280049
454 2 0.249823 0.34986 0.25132
490 1 0.299979 0.400107 0.280121
462 2 0.450054 0.350404 0.251513
498 1 0.499746 0.400264 0.280421
470 2 0.650167 0.349445 0.251493
506 1 0.6995 0.399767 0.280233
478 2 0.849872 0.35024 0.251318
514 1 0.899925 0.400188 0.280204
488 2 0.149734 0.450277 0.25154
496 2 0.349712 0.450052 0.251504
504 2 0.549619 0.449344 0.251646
508 1 0.599823 0.499353 0.28011
512 2 0.749855 0.449816 0.251519
520 2 0.950281 0.449995 0.251268
484 1 0.999998 0.499821 0.280385
486 2 0.0500759 0.550098 0.251601
494 2 0.249665 0.55021 0.251494
492 1 0.199709 0.499882 0.280107
500 1 0.399769 0.499992 0.280199
502 2 0.449658 0.550275 0.251445
510 2 0.649626 0.549677 0.251633
516 1 0.800553 0.499439 0.280165
518 2 0.849845 0.550267 0.251657
528 2 0.149842 0.649692 0.251411
522 1 0.100175 0.600032 0.2804
530 1 0.299837 0.60005 0.280267
536 2 0.350188 0.649849 0.251348
538 1 0.500024 0.599701 0.280306
544 2 0.550414 0.650156 0.251392
552 2 0.750267 0.65038 0.251242
546 1 0.70044 0.599983 0.280064
554 1 0.900236 0.600354 0.280275
560 2 0.950499 0.649603 0.251423
534 2 0.249536 0.749638 0.25165
532 1 0.199379 0.699576 0.280281
540 1 0.399938 0.699891 0.280283
550 2 0.650335 0.74957 0.251493
548 1 0.599986 0.699801 0.280391
556 1 0.799562 0.700475 0.280249
524 1 1.00008 0.700032 0.280397
526 2 0.0498935 0.750062 0.251455
562 1 0.100076 0.799857 0.280357
570 1 0.299695 0.799658 0.280196
542 2 0.44959 0.750277 0.251665
578 1 0.500371 0.799751 0.28001
586 1 0.700235 0.800021 0.280161
558 2 0.850196 0.749684 0.251327
594 1 0.900107 0.799851 0.280071
568 2 0.150059 0.850189 0.251565
572 1 0.200009 0.899745 0.280249
576 2 0.349885 0.850006 0.251606
580 1 0.400508 0.900157 0.280135
584 2 0.550294 0.849955 0.251432
588 1 0.600059 0.900097 0.280298
592 2 0.750298 0.849923 0.251325
596 1 0.800378 0.899909 0.279952
600 2 0.950128 0.850188 0.2513
564 1 1.00012 0.899924 0.280246
566 2 0.0499832 0.949624 0.251435
574 2 0.250433 0.949748 0.251427
410 1 0.300105 1.00028 0.280369
582 2 0.450299 0.949594 0.251257
418 1 0.500315 0.999541 0.280289
590 2 0.649812 0.949666 0.251392
426 1 0.699594 1.00009 0.280036
598 2 0.849711 0.950294 0.251247
407 2 0.0498841 0.0503822 0.309051
415 2 0.249555 0.0497989 0.309213
423 2 0.450078 0.0500342 0.309058
431 2 0.649788 0.0499864 0.309098
439 2 0.850272 0.0498118 0.309151
405 2 0.149995 0.150049 0.308894
413 2 0.350152 0.150109 0.309026
421 2 0.549559 0.150059 0.30889
429 2 0.750368 0.149765 0.30919
437 2 0.950116 0.150062 0.309265
447 2 0.0498837 0.249918 0.309126
463 2 0.449878 0.249661 0.309051
455 2 0.250443 0.249895 0.308862
471 2 0.649715 0.249725 0.30886
479 2 0.850132 0.250211 0.308912
445 2 0.149889 0.350322 0.308816
453 2 0.349994 0.350144 0.309014
461 2 0.549896 0.350381 0.308914
469 2 0.75006 0.350398 0.308936
477 2 0.949878 0.349712 0.30911
487 2 0.0499302 0.449674 0.3092
495 2 0.249517 0.449761 0.308755
503 2 0.450194 0.450331 0.308836
511 2 0.650292 0.450403 0.309128
519 2 0.850458 0.450031 0.309178
485 2 0.149817 0.550026 0.309168
493 2 0.350048 0.550095 0.309047
501 2 0.550208 0.549537 0.309172
509 2 0.75045 0.549751 0.308873
517 2 0.949907 0.55036 0.309131
527 2 0.050336 0.649769 0.309164
535 2 0.24964 0.650195 0.309156
543 2 0.450541 0.650249 0.309041
551 2 0.650436 0.649728 0.308971
559 2 0.849784 0.650106 0.308786
533 2 0.35024 0.750538 0.308834
525 2 0.149671 0.749773 0.309232
541 2 0.549843 0.750111 0.309126
549 2 0.749766 0.74998 0.309058
557 2 0.949686 0.750448 0.309144
567 2 0.0502783 0.850423 0.309132
575 2 0.24995 0.84974 0.308937
583 2 0.450654 0.849757 0.308728
591 2 0.649964 0.849829 0.308981
599 2 0.849783 0.850079 0.30881
565 2 0.150363 0.950039 0.309109
573 2 0.350274 0.950043 0.308961
581 2 0.550154 0.949808 0.309205
589 2 0.749675 0.949537 0.308819
597 2 0.950335 0.950404 0.309072
608 2 0.149631 0.0504627 0.366749
616 2 0.350127 0.0499733 0.366262
624 2 0.54979 0.0498252 0.366619
632 2 0.750044 0.0497859 0.366532
633 1 0.799759 -0.00053811 0.337827
640 2 0.950144 0.04972 0.366773
606 2 0.0498006 0.149684 0.366642
603 1 0.100323 0.100416 0.337794
614 2 0.25017 0.150334 0.366477
611 1 0.29962 0.100072 0.337856
622 2 0.450251 0.150145 0.366666
619 1 0.499658 0.0996694 0.337701
630 2 0.649439 0.149957 0.366373
627 1 0.699674 0.0995828 0.337891
635 1 0.900447 0.100093 0.33798
638 2 0.850047 0.149789 0.36663
641 1 -6.54653e-05 0.20002 0.338006
649 1 0.200034 0.200285 0.337637
657 1 0.400436 0.200142 0.337724
656 2 0.350068 0.249643 0.366608
665 1 0.599547 0.200419 0.337636
673 1 0.800543 0.200295 0.33791
680 2 0.950426 0.250312 0.366603
643 1 0.100484 0.300048 0.337686
648 2 0.149655 0.249693 0.366764
651 1 0.299949 0.29984 0.33776
659 1 0.499885 0.299896 0.337615
664 2 0.549594 0.250161 0.366681
667 1 0.700251 0.299776 0.33773
672 2 0.749964 0.249676 0.366641
675 1 0.900059 0.299495 0.337891
646 2 0.0502407 0.349974 0.3667
681 1 0.000138716 0.399895 0.337991
689 1 0.199843 0.399723 0.337587
654 2 0.24981 0.349888 0.366315
697 1 0.400269 0.400095 0.337597
662 2 0.449723 0.349815 0.366668
670 2 0.650203 0.34952 0.3665
705 1 0.600465 0.399793 0.337872
713 1 0.800167 0.400445 0.337719
678 2 0.850014 0.349963 0.366378
688 2 0.149866 0.449914 0.366711
691 1 0.299753 0.499762 0.337632
696 2 0.350434 0.450049 0.366357
704 2 0.550269 0.449594 0.366603
712 2 0.749677 0.449779 0.366499
707 1 0.700292 0.500134 0.337782
715 1 0.900347 0.50005 0.337743
720 2 0.949874 0.44984 0.366419
686 2 0.0495678 0.549655 0.366727
683 1 0.0999386 0.499676 0.337948
694 2 0.250174 0.549984 0.366439
702 2 0.450221 0.55035 0.366323
699 1 0.49992 0.499715 0.337924
710 2 0.65017 0.550096 0.36656
718 2 0.850096 0.549764 0.366448
728 2 0.149767 0.649913 0.366718
729 1 0.199691 0.600238 0.337792
736 2 0.350292 0.650142 0.366417
737 1 0.400146 0.60006 0.337543
744 2 0.549737 0.650307 0.366487
745 1 0.600041 0.600392 0.337846
752 2 0.749845 0.650359 0.366452
753 1 0.800253 0.600224 0.337787
721 1 1.0004 0.599951 0.337731
760 2 0.950106 0.649994 0.366468
723 1 0.0998015 0.699943 0.337961
734 2 0.249753 0.749696 0.366683
731 1 0.300425 0.700147 0.337647
742 2 0.449745 0.749767 0.366591
739 1 0.499993 0.700514 0.337873
747 1 0.699613 0.700222 0.33762
755 1 0.899918 0.699553 0.337772
758 2 0.849883 0.749879 0.366442
726 2 0.0498937 0.750327 0.366538
761 1 0.000182138 0.800594 0.337961
769 1 0.199938 0.79968 0.337777
777 1 0.400385 0.800415 0.337733
750 2 0.649514 0.749752 0.366556
785 1 0.599888 0.800174 0.337825
793 1 0.800077 0.799985 0.33765
763 1 0.100292 0.900458 0.337931
768 2 0.150116 0.850147 0.36644
771 1 0.300078 0.900372 0.337673
776 2 0.350164 0.850255 0.366586
779 1 0.50045 0.899722 0.337725
784 2 0.550386 0.850263 0.366787
787 1 0.69994 0.899521 0.337906
792 2 0.750143 0.849689 0.366629
795 1 0.899634 0.899734 0.337556
800 2 0.949514 0.850329 0.366594
601 1 6.75191e-05 1.00033 0.337968
766 2 0.0501259 0.949958 0.366714
609 1 0.199569 1.00004 0.338099
774 2 0.249755 0.949885 0.366759
617 1 0.400149 0.999529 0.337622
782 2 0.450453 0.949884 0.366586
625 1 0.599898 1.00021 0.337764
790 2 0.649494 0.949692 0.366595
798 2 0.850263 0.949839 0.366576
618 1 0.500344 0.00018598 0.395274
626 1 0.699896 -0.000131838 0.395316
604 1 -0.00017425 0.0999585 0.395272
612 1 0.200204 0.0997849 0.395413
620 1 0.399744 0.100137 0.395269
628 1 0.60007 0.0996057 0.395471
636 1 0.80013 0.0998264 0.395249
642 1 0.0996048 0.199726 0.395351
650 1 0.299607 0.200043 0.39547
658 1 0.499968 0.200136 0.39517
666 1 0.699963 0.200016 0.395384
674 1 0.900425 0.200087 0.395058
644 1 0.000348473 0.300031 0.395273
652 1 0.200288 0.300041 0.395113
660 1 0.399607 0.300092 0.395341
668 1 0.599633 0.300259 0.395247
676 1 0.799577 0.30034 0.395222
682 1 0.0999993 0.400213 0.395579
690 1 0.300119 0.400275 0.395213
698 1 0.499784 0.399926 0.395438
706 1 0.699725 0.39991 0.395389
714 1 0.899809 0.399963 0.395238
700 1 0.400412 0.500287 0.395147
716 1 0.800205 0.499651 0.395362
684 1 -0.000696148 0.49998 0.395353
692 1 0.200364 0.499978 0.395391
708 1 0.600147 0.500267 0.395479
722 1 0.0994716 0.599973 0.395463
730 1 0.300063 0.599737 0.395268
738 1 0.499748 0.60028 0.395157
746 1 0.700151 0.600488 0.395461
754 1 0.90007 0.599601 0.395376
732 1 0.199978 0.69997 0.395429
740 1 0.400213 0.700023 0.39533
748 1 0.600043 0.700016 0.395492
756 1 0.799642 0.700289 0.395224
724 1 0.999526 0.700297 0.39523
762 1 0.100426 0.799747 0.395437
770 1 0.300098 0.79998 0.395255
778 1 0.500411 0.79941 0.395134
786 1 0.699644 0.799706 0.395235
794 1 0.899408 0.80005 0.395322
764 1 -0.000160762 0.899961 0.395445
772 1 0.199485 0.900167 0.395331
780 1 0.400048 0.899739 0.395527
788 1 0.599749 0.900388 0.395579
796 1 0.800052 0.90038 0.395088
602 1 0.0998898 0.999793 0.395215
610 1 0.300051 1.00019 0.395177
634 1 0.899614 1.00039 0.395585
607 2 0.0502405 0.049845 0.424026
809 1 0.19955 -0.000414743 0.452691
615 2 0.249972 0.0497182 0.424179
623 2 0.449642 0.0497174 0.424005
631 2 0.650275 0.0502858 0.424288
825 1 0.600028 -8.12257e-05 0.452892
639 2 0.849793 0.050583 0.424269
801 1 0.999791 5.49174e-05 0.452736
605 2 0.149598 0.14972 0.423904
803 1 0.100049 0.100183 0.452867
811 1 0.300315 0.099593 0.452621
613 2 0.349771 0.15009 0.424063
819 1 0.49956 0.0997758 0.45281
621 2 0.549511 0.150059 0.424002
827 1 0.700233 0.100235 0.45283
629 2 0.75 0.149705 0.424102
835 1 0.899933 0.100088 0.452816
637 2 0.949697 0.150317 0.424097
849 1 0.199382 0.199691 0.452983
857 1 0.399931 0.20019 0.452787
663 2 0.450257 0.249735 0.423877
865 1 0.599842 0.200033 0.45273
873 1 0.800143 0.199933 0.452582
679 2 0.85014 0.249977 0.423845
841 1 1.00003 0.199945 0.452967
647 2 0.0498742 0.249784 0.423993
843 1 0.0998005 0.300331 0.452715
655 2 0.249802 0.250047 0.424192
851 1 0.300074 0.299886 0.453044
859 1 0.500348 0.299698 0.452902
671 2 0.649869 0.25015 0.424158
867 1 0.699588 0.299689 0.452909
875 1 0.899868 0.300318 0.453
645 2 0.150197 0.349779 0.423958
889 1 0.199656 0.400406 0.452678
653 2 0.349563 0.350129 0.424105
897 1 0.399675 0.399787 0.452737
661 2 0.550239 0.350466 0.424008
905 1 0.600258 0.400462 0.452797
669 2 0.749692 0.349658 0.424292
913 1 0.800326 0.399698 0.452837
881 1 1.00033 0.400211 0.452735
677 2 0.950102 0.350178 0.423992
687 2 0.0497751 0.450466 0.423934
695 2 0.25046 0.449977 0.424145
891 1 0.299937 0.500228 0.45296
703 2 0.450236 0.450276 0.424307
711 2 0.64994 0.450462 0.42413
719 2 0.850246 0.450071 0.424263
915 1 0.899713 0.500075 0.452763
685 2 0.150238 0.549735 0.423992
883 1 0.0998556 0.499654 0.452972
693 2 0.350152 0.549592 0.423952
899 1 0.500389 0.499932 0.453049
701 2 0.549755 0.550182 0.424243
907 1 0.700127 0.499721 0.453059
709 2 0.749812 0.549693 0.424118
717 2 0.950097 0.550129 0.424289
727 2 0.049482 0.650471 0.423995
921 1 0.000276607 0.600115 0.452981
929 1 0.200375 0.599947 0.452752
735 2 0.250132 0.650088 0.423958
937 1 0.400234 0.59943 0.452842
743 2 0.450216 0.650245 0.42411
751 2 0.649616 0.649936 0.42441
945 1 0.599598 0.599949 0.453129
953 1 0.800245 0.599651 0.452766
759 2 0.849832 0.65 0.423894
923 1 0.0995448 0.700188 0.45263
931 1 0.299939 0.700116 0.453025
939 1 0.499902 0.700136 0.452776
947 1 0.699927 0.699769 0.453093
749 2 0.749475 0.749825 0.424201
955 1 0.899593 0.699751 0.452996
757 2 0.949488 0.750064 0.424179
961 1 -0.000178568 0.799931 0.452974
725 2 0.150188 0.749911 0.424214
969 1 0.199881 0.80045 0.452933
733 2 0.350221 0.749802 0.424265
977 1 0.399733 0.80017 0.453058
741 2 0.550152 0.750111 0.424284
985 1 0.600085 0.8001 0.452841
993 1 0.799647 0.799822 0.452897
767 2 0.0498477 0.849486 0.424002
963 1 0.0995241 0.899673 0.452968
775 2 0.249771 0.850466 0.423969
971 1 0.300129 0.899788 0.453025
783 2 0.450354 0.849407 0.424039
979 1 0.500231 0.899858 0.452816
791 2 0.650104 0.850209 0.424109
987 1 0.699973 0.899773 0.452863
799 2 0.849364 0.850262 0.423987
995 1 0.899835 0.899766 0.452654
765 2 0.149836 0.949569 0.424068
817 1 0.399602 0.999815 0.452899
773 2 0.3495 0.949681 0.424005
781 2 0.550223 0.950253 0.424061
833 1 0.800188 1.00011 0.452763
789 2 0.749917 0.949681 0.424004
797 2 0.950119 0.950275 0.424196
808 2 0.14993 0.0498522 0.481626
816 2 0.349811 0.0500501 0.481553
824 2 0.54988 0.0497567 0.481546
832 2 0.74956 0.0496571 0.481487
840 2 0.950001 0.0500137 0.48148
806 2 0.0499594 0.149989 0.481758
814 2 0.249721 0.14937 0.48137
822 2 0.4497 0.149735 0.4818
830 2 0.649648 0.149877 0.481481
838 2 0.849585 0.150042 0.48142
872 2 0.750049 0.249738 0.481379
880 2 0.95034 0.250044 0.481618
848 2 0.149959 0.250564 0.481682
856 2 0.349728 0.250023 0.481699
864 2 0.54998 0.249694 0.481515
846 2 0.0503435 0.35048 0.481524
854 2 0.249951 0.350449 0.481558
862 2 0.449568 0.349513 0.481788
870 2 0.649823 0.349593 0.481586
878 2 0.849938 0.350153 0.481737
888 2 0.15017 0.450363 0.481782
896 2 0.349802 0.449922 0.481757
904 2 0.549783 0.45009 0.481691
912 2 0.750488 0.44977 0.48178
920 2 0.949838 0.450262 0.481588
886 2 0.0499236 0.550104 0.481586
894 2 0.250246 0.550036 0.481475
902 2 0.450359 0.54959 0.481731
910 2 0.650089 0.550308 0.481496
918 2 0.850192 0.5499 0.481689
928 2 0.149925 0.650277 0.481363
936 2 0.350058 0.649523 0.481575
944 2 0.549937 0.650384 0.481895
952 2 0.749911 0.649849 0.481519
960 2 0.949993 0.649656 0.481539
934 2 0.250264 0.750349 0.48171
942 2 0.450356 0.750362 0.481498
958 2 0.849582 0.75018 0.481731
926 2 0.0499947 0.749973 0.481532
950 2 0.649707 0.750315 0.481532
968 2 0.150024 0.850336 0.481652
976 2 0.34994 0.850122 0.481847
984 2 0.549855 0.85021 0.48175
992 2 0.749924 0.850136 0.481667
1000 2 0.949834 0.850376 0.481699
966 2 0.050179 0.950366 0.481682
974 2 0.250131 0.950267 0.481581
982 2 0.450168 0.950308 0.481812
990 2 0.650392 0.950451 0.481416
998 2 0.850317 0.949903 0.481714
807 2 0.0499105 0.0495044 0.539229
802 1 0.100199 0.000316195 0.510564
815 2 0.250296 0.0497799 0.53914
823 2 0.449664 0.0499127 0.539321
818 1 0.50014 0.000299885 0.510666
831 2 0.649805 0.0502538 0.539397
826 1 0.699926 0.000209351 0.510409
839 2 0.849802 0.0503079 0.539098
805 2 0.150068 0.149758 0.539319
812 1 0.199723 0.100009 0.51041
820 1 0.399957 0.0997229 0.510545
813 2 0.349857 0.150228 0.539142
821 2 0.549895 0.149759 0.539049
828 1 0.600122 0.0998688 0.510387
829 2 0.749428 0.149856 0.539142
836 1 0.799349 0.100027 0.510137
804 1 1.00012 0.0995922 0.510511
837 2 0.949989 0.150154 0.53928
842 1 0.100311 0.200244 0.510455
850 1 0.299475 0.199796 0.510204
863 2 0.450167 0.25034 0.539369
858 1 0.500188 0.200388 0.510532
866 1 0.699649 0.200248 0.510218
874 1 0.900297 0.199637 0.510265
879 2 0.849859 0.249954 0.538976
844 1 -6.33749e-05 0.299884 0.510367
847 2 0.0497466 0.250022 0.539311
852 1 0.200288 0.300025 0.510415
855 2 0.250364 0.249975 0.539378
860 1 0.399641 0.299585 0.510551
868 1 0.599777 0.299982 0.510497
871 2 0.650319 0.249947 0.539245
876 1 0.80019 0.299823 0.510233
882 1 0.100051 0.400222 0.510662
845 2 0.150135 0.349688 0.539189
890 1 0.300045 0.399937 0.510505
853 2 0.35009 0.349918 0.539083
898 1 0.499896 0.399858 0.510555
861 2 0.550565 0.350548 0.53926
906 1 0.699454 0.400121 0.510303
869 2 0.749788 0.350011 0.539009
914 1 0.899834 0.39965 0.510377
877 2 0.949776 0.349906 0.53923
887 2 0.0495562 0.449729 0.539387
892 1 0.200391 0.500297 0.510305
895 2 0.249985 0.449715 0.539125
900 1 0.399559 0.500448 0.510553
903 2 0.449593 0.450396 0.539275
911 2 0.650324 0.450414 0.539419
916 1 0.80047 0.499914 0.51044
919 2 0.85038 0.449651 0.539001
885 2 0.150342 0.549906 0.538974
893 2 0.350186 0.54989 0.539523
901 2 0.549799 0.550289 0.539181
908 1 0.600255 0.499815 0.51035
909 2 0.749909 0.549696 0.539131
884 1 1.00016 0.499668 0.510526
917 2 0.950346 0.550262 0.539282
927 2 0.0497229 0.650085 0.539363
922 1 0.0997382 0.600489 0.510414
930 1 0.300156 0.599446 0.510513
935 2 0.250152 0.650056 0.539078
943 2 0.450083 0.650162 0.539249
938 1 0.499598 0.599735 0.51049
951 2 0.650193 0.650349 0.539203
946 1 0.699983 0.600132 0.510535
954 1 0.900235 0.599791 0.510433
959 2 0.84977 0.650469 0.539207
932 1 0.200226 0.699888 0.510332