ITEM: TIMESTEP
300
ITEM: NUMBER OF ATOMS
1250
ITEM: BOX BOUNDS pp pp pp
0.0000000000000000e+00 3.3000000000000000e+01
0.0000000000000000e+00 3.3000000000000000e+01
-1.3199999999999999e+01 5.2799999999999997e+01
ITEM: ATOMS id type xs ys zs
1 1 0 0 0
8 2 0.15 0.05 0.025
9 1 0.2 0 0
16 2 0.35 0.05 0.025
17 1 0.4 0 0
24 2 0.55 0.05 0.025
25 1 0.6 0 0
32 2 0.75 0.05 0.025
33 1 0.8 0 0
40 2 0.95 0.05 0.025
6 2 0.05 0.15 0.025
3 1 0.1 0.1 0
11 1 0.3 0.1 0
14 2 0.25 0.15 0.025
22 2 0.45 0.15 0.025
19 1 0.5 0.1 0
30 2 0.65 0.15 0.025
27 1 0.7 0.1 0
35 1 0.9 0.1 0
38 2 0.85 0.15 0.025
41 1 0 0.2 0
49 1 0.2 0.2 0
57 1 0.4 0.2 0
65 1 0.6 0.2 0
73 1 0.8 0.2 0
43 1 0.1 0.3 0
48 2 0.15 0.25 0.025
51 1 0.3 0.3 0
56 2 0.35 0.25 0.025
59 1 0.5 0.3 0
64 2 0.55 0.25 0.025
67 1 0.7 0.3 0
72 2 0.75 0.25 0.025
75 1 0.9 0.3 0
80 2 0.95 0.25 0.025
46 2 0.05 0.35 0.025
81 1 0 0.4 0
89 1 0.2 0.4 0
54 2 0.25 0.35 0.025
97 1 0.4 0.4 0
62 2 0.45 0.35 0.025
70 2 0.65 0.35 0.025
105 1 0.6 0.4 0
113 1 0.8 0.4 0
78 2 0.85 0.35 0.025
88 2 0.15 0.45 0.025
96 2 0.35 0.45 0.025
104 2 0.55 0.45 0.025
112 2 0.75 0.45 0.025
120 2 0.95 0.45 0.025
86 2 0.05 0.55 0.025
83 1 0.1 0.5 0
91 1 0.3 0.5 0
94 2 0.25 0.55 0.025
102 2 0.45 0.55 0.025
99 1 0.5 0.5 0
110 2 0.65 0.55 0.025
107 1 0.7 0.5 0
115 1 0.9 0.5 0
118 2 0.85 0.55 0.025
121 1 0 0.6 0
128 2 0.15 0.65 0.025
129 1 0.2 0.6 0
136 2 0.35 0.65 0.025
137 1 0.4 0.6 0
144 2 0.55 0.65 0.025
145 1 0.6 0.6 0
152 2 0.75 0.65 0.025
153 1 0.8 0.6 0
160 2 0.95 0.65 0.025
123 1 0.1 0.7 0
131 1 0.3 0.7 0
139 1 0.5 0.7 0
147 1 0.7 0.7 0
155 1 0.9 0.7 0
126 2 0.05 0.75 0.025
161 1 0 0.8 0
169 1 0.2 0.8 0
134 2 0.25 0.75 0.025
177 1 0.4 0.8 0
142 2 0.45 0.75 0.025
150 2 0.65 0.75 0.025
185 1 0.6 0.8 0
193 1 0.8 0.8 0
158 2 0.85 0.75 0.025
163 1 0.1 0.9 0
168 2 0.15 0.85 0.025
171 1 0.3 0.9 0
176 2 0.35 0.85 0.025
179 1 0.5 0.9 0
184 2 0.55 0.85 0.025
187 1 0.7 0.9 0
192 2 0.75 0.85 0.025
195 1 0.9 0.9 0
200 2 0.95 0.85 0.025
166 2 0.05 0.95 0.025
174 2 0.25 0.95 0.025
182 2 0.45 0.95 0.025
190 2 0.65 0.95 0.025
198 2 0.85 0.95 0.025
7 2 0.0501028 0.0504533 0.0769918
2 1 0.1 0 0.05
15 2 0.249711 0.0500002 0.0772095
10 1 0.3 0 0.05
23 2 0.450285 0.050207 0.0772154
18 1 0.5 0 0.05
31 2 0.65007 0.0499071 0.0770576
26 1 0.7 0 0.05
34 1 0.9 0 0.05
39 2 0.850448 0.0501883 0.0769769
4 1 0 0.1 0.05
5 2 0.149841 0.150215 0.0767591
12 1 0.2 0.1 0.05
13 2 0.349915 0.150309 0.0772415
20 1 0.4 0.1 0.05
21 2 0.550376 0.150512 0.076765
28 1 0.6 0.1 0.05
29 2 0.750487 0.149832 0.0767784
36 1 0.8 0.1 0.05
37 2 0.950312 0.149722 0.0771738
42 1 0.1 0.2 0.05
50 1 0.3 0.2 0.05
63 2 0.44981 0.24966 0.0770452
58 1 0.5 0.2 0.05
66 1 0.7 0.2 0.05
74 1 0.9 0.2 0.05
44 1 0 0.3 0.05
47 2 0.0495895 0.25028 0.0767032
52 1 0.2 0.3 0.05
55 2 0.249753 0.250232 0.0771369
60 1 0.4 0.3 0.05
68 1 0.6 0.3 0.05
71 2 0.650486 0.249593 0.0769921
76 1 0.8 0.3 0.05
79 2 0.849839 0.250554 0.0769333
45 2 0.149383 0.350268 0.0769291
82 1 0.1 0.4 0.05
90 1 0.3 0.4 0.05
53 2 0.34978 0.349952 0.0768269
61 2 0.550471 0.349938 0.0770334
98 1 0.5 0.4 0.05
106 1 0.7 0.4 0.05
69 2 0.750217 0.349587 0.0769875
114 1 0.9 0.4 0.05
77 2 0.949932 0.350209 0.0770793
87 2 0.0495765 0.449596 0.0769426
95 2 0.250269 0.450136 0.0771039
103 2 0.450061 0.450262 0.0768325
111 2 0.650119 0.449416 0.0771061
119 2 0.84999 0.449312 0.0768383
84 1 0 0.5 0.05
85 2 0.149538 0.549895 0.0768891
92 1 0.2 0.5 0.05
93 2 0.349957 0.550412 0.077216
100 1 0.4 0.5 0.05
101 2 0.550263 0.550553 0.0771881
108 1 0.6 0.5 0.05
109 2 0.750381 0.549599 0.0770695
116 1 0.8 0.5 0.05
117 2 0.950003 0.550427 0.0769806
127 2 0.0504964 0.650389 0.0767636
122 1 0.1 0.6 0.05
135 2 0.249571 0.649681 0.0771117
130 1 0.3 0.6 0.05
143 2 0.450153 0.65054 0.0769057
138 1 0.5 0.6 0.05
151 2 0.649758 0.650137 0.0768583
146 1 0.7 0.6 0.05
154 1 0.9 0.6 0.05
159 2 0.850041 0.650235 0.0771686
124 1 0 0.7 0.05
132 1 0.2 0.7 0.05
140 1 0.4 0.7 0.05
148 1 0.6 0.7 0.05
149 2 0.749834 0.750026 0.0769799
156 1 0.8 0.7 0.05
125 2 0.150771 0.750304 0.0772327
162 1 0.1 0.8 0.05
170 1 0.3 0.8 0.05
133 2 0.350156 0.749777 0.076848
141 2 0.549688 0.750361 0.0772627
178 1 0.5 0.8 0.05
186 1 0.7 0.8 0.05
194 1 0.9 0.8 0.05
157 2 0.950077 0.750368 0.077027
164 1 0 0.9 0.05
167 2 0.0498972 0.850399 0.0767335
172 1 0.2 0.9 0.05
175 2 0.250618 0.850212 0.0771186
180 1 0.4 0.9 0.05
183 2 0.450268 0.850396 0.0769253
188 1 0.6 0.9 0.05
191 2 0.650275 0.849481 0.0772296
196 1 0.8 0.9 0.05
199 2 0.850225 0.84978 0.0771562
165 2 0.14936 0.949639 0.0771969
173 2 0.349919 0.949886 0.07721
181 2 0.549312 0.949571 0.0769377
189 2 0.750458 0.950148 0.0767732
197 2 0.949608 0.949753 0.0769827
209 1 0.199731 -0.000449059 0.103959
217 1 0.399505 0.000660905 0.103973
225 1 0.599112 -0.000158603 0.103884
233 1 0.800502 -4.51369e-05 0.103703
203 1 0.100353 0.100344 0.103629
211 1 0.299833 0.100326 0.103987
219 1 0.500561 0.100712 0.103658
227 1 0.700337 0.100312 0.103657
235 1 0.900045 0.100203 0.103872
241 1 0.000232292 0.200238 0.103841
249 1 0.200224 0.199591 0.103865
257 1 0.400119 0.200067 0.104137
265 1 0.599861 0.200393 0.103981
273 1 0.79986 0.200202 0.103701
243 1 0.0997109 0.299465 0.10381
251 1 0.299833 0.299967 0.103779
259 1 0.499966 0.299734 0.103851
267 1 0.700449 0.299692 0.104028
275 1 0.900143 0.300286 0.104044
281 1 -1.62417e-05 0.399573 0.104008
289 1 0.199921 0.400005 0.103858
297 1 0.400074 0.400093 0.103737
305 1 0.600253 0.399447 0.104232
313 1 0.800029 0.399895 0.103967
283 1 0.100015 0.499852 0.103731
291 1 0.299722 0.500046 0.104098
299 1 0.500314 0.500395 0.104079
307 1 0.700186 0.500127 0.103882
315 1 0.899739 0.499568 0.103841
321 1 -9.93441e-05 0.600885 0.103931
329 1 0.199285 0.599702 0.10394
337 1 0.400412 0.6006 0.104235
345 1 0.600665 0.599746 0.103908
353 1 0.799488 0.600102 0.103798
323 1 0.100171 0.70016 0.103735
331 1 0.300176 0.699864 0.103724
339 1 0.499495 0.700584 0.104228
347 1 0.700253 0.699732 0.10406
355 1 0.899997 0.700262 0.10392
361 1 0.000326174 0.800363 0.10384
369 1 0.200875 0.800517 0.103966
377 1 0.399678 0.800441 0.10399
385 1 0.600042 0.800018 0.104293
393 1 0.79956 0.800091 0.104089
363 1 0.0995699 0.899446 0.103894
371 1 0.300032 0.900042 0.104279
379 1 0.49998 0.899634 0.104084
387 1 0.70054 0.900177 0.10382
395 1 0.899965 0.899491 0.104102
201 1 8.42446e-06 1.00033 0.103898
202 1 0.100265 0.000179129 0.157922
208 2 0.14968 0.0503845 0.130692
216 2 0.349657 0.0504494 0.130752
224 2 0.549421 0.0504739 0.131084
226 1 0.699671 -0.000265228 0.157583
232 2 0.750101 0.0501025 0.130718
240 2 0.950011 0.0504108 0.130688
206 2 0.0504605 0.150135 0.13075
212 1 0.199873 0.100212 0.157985
214 2 0.250159 0.150283 0.13105
220 1 0.400038 0.0994025 0.157704
222 2 0.449837 0.149567 0.130661
228 1 0.599649 0.100522 0.157931
230 2 0.650076 0.149872 0.13063
236 1 0.799753 0.0995994 0.157783
238 2 0.849351 0.149747 0.130965
204 1 0.999733 0.100177 0.157749
242 1 0.100703 0.199897 0.157883
250 1 0.300407 0.199813 0.158181
258 1 0.499383 0.199895 0.157758
264 2 0.54991 0.250107 0.131013
266 1 0.700167 0.199814 0.157524
274 1 0.899373 0.199663 0.157946
248 2 0.150007 0.250184 0.130697
252 1 0.200014 0.300428 0.15774
256 2 0.350038 0.250049 0.130939
260 1 0.400365 0.299476 0.158051
268 1 0.600278 0.300231 0.157895
272 2 0.7504 0.249676 0.130895
276 1 0.800072 0.300379 0.157718
244 1 1.00005 0.299535 0.157573
280 2 0.94973 0.249327 0.130771
246 2 0.0505311 0.349571 0.130768
282 1 0.100036 0.399696 0.157922
254 2 0.24981 0.350118 0.130623
290 1 0.299562 0.399339 0.1582
262 2 0.449779 0.349947 0.131068
298 1 0.500177 0.399742 0.158012
270 2 0.650546 0.350067 0.13096
306 1 0.70026 0.399835 0.157754
278 2 0.849904 0.350399 0.130777
314 1 0.899616 0.399941 0.157925
288 2 0.150175 0.449667 0.13102
292 1 0.200208 0.499745 0.157827
296 2 0.349901 0.449902 0.131207
300 1 0.400456 0.500588 0.157804
304 2 0.550008 0.449729 0.130889
312 2 0.750241 0.450056 0.130797
316 1 0.799929 0.500432 0.15769
320 2 0.949766 0.449994 0.131006
286 2 0.0500121 0.549926 0.130693
294 2 0.249541 0.550078 0.130739
302 2 0.450449 0.550447 0.131019
308 1 0.600002 0.499912 0.157725
310 2 0.650065 0.549991 0.130825
318 2 0.849678 0.550247 0.130514
284 1 1.00015 0.499727 0.157752
322 1 0.100404 0.600008 0.157927
328 2 0.150139 0.650512 0.130876
330 1 0.299956 0.600252 0.157749
336 2 0.349768 0.650379 0.131061
338 1 0.500654 0.599649 0.157677
344 2 0.549998 0.6495 0.130617
346 1 0.699963 0.600374 0.157848
352 2 0.750105 0.649972 0.130946
354 1 0.899728 0.599043 0.158064
360 2 0.949161 0.650106 0.130987
324 1 0.000475058 0.69945 0.157602
332 1 0.200697 0.70003 0.157965
340 1 0.399895 0.699504 0.157947
348 1 0.599813 0.699514 0.157786
356 1 0.80051 0.700222 0.158035
358 2 0.850291 0.750123 0.13069
326 2 0.0497731 0.749798 0.130649
362 1 0.100194 0.8 0.157605
334 2 0.250532 0.750258 0.130891
370 1 0.300065 0.799734 0.158071
342 2 0.449979 0.750509 0.131371
378 1 0.50065 0.800414 0.15813
350 2 0.650628 0.749965 0.131232
386 1 0.700828 0.799983 0.158195
394 1 0.899864 0.799413 0.15793
364 1 0.000570855 0.900023 0.157803
368 2 0.150149 0.84989 0.130668
372 1 0.199327 0.899764 0.157985
376 2 0.349646 0.850267 0.131247
380 1 0.400531 0.900333 0.157848
384 2 0.550619 0.850612 0.130963
388 1 0.600838 0.899932 0.157932
392 2 0.750178 0.850533 0.131228
396 1 0.800561 0.899867 0.158334
400 2 0.950307 0.849547 0.131172
366 2 0.0502672 0.950487 0.130785
374 2 0.249333 0.949484 0.130994
210 1 0.299557 1.00028 0.157642
382 2 0.45 0.950564 0.130548
218 1 0.499801 0.99982 0.157713
390 2 0.649527 0.949807 0.130608
234 1 0.900832 0.999486 0.157582
398 2 0.850246 0.950035 0.130854
207 2 0.0500249 0.050064 0.184738
215 2 0.249871 0.0496686 0.184751
223 2 0.450318 0.0493923 0.184782
231 2 0.649789 0.050151 0.18472
239 2 0.850095 0.0493313 0.184337
205 2 0.150365 0.150135 0.185021
213 2 0.350442 0.149538 0.185163
221 2 0.549326 0.150397 0.184992
229 2 0.749938 0.149729 0.184556
237 2 0.949247 0.14931 0.184875
247 2 0.0503854 0.249942 0.184861
279 2 0.84951 0.250196 0.184586
255 2 0.24967 0.249647 0.184912
263 2 0.449782 0.249699 0.184807
271 2 0.650381 0.249456 0.184797
245 2 0.149738 0.350221 0.184693
253 2 0.350618 0.349483 0.185129
261 2 0.550173 0.349813 0.184788
269 2 0.750004 0.349885 0.184626
277 2 0.950107 0.349785 0.184705
287 2 0.050267 0.45008 0.184782
295 2 0.24944 0.450193 0.185178
303 2 0.450289 0.450205 0.184794
311 2 0.649672 0.449717 0.184575
319 2 0.849615 0.450142 0.184804
285 2 0.149794 0.549666 0.185073
293 2 0.350373 0.550481 0.184594
301 2 0.549984 0.549743 0.18485
309 2 0.7498 0.549851 0.184966
317 2 0.950492 0.549238 0.185003
327 2 0.0502154 0.650054 0.184655
335 2 0.250135 0.64934 0.185101
343 2 0.450658 0.64966 0.184581
351 2 0.649664 0.650271 0.184893
359 2 0.85036 0.649627 0.184883
325 2 0.150383 0.750418 0.184545
333 2 0.350046 0.74925 0.184933
341 2 0.550379 0.74977 0.184972
349 2 0.75074 0.750403 0.185196
357 2 0.950673 0.749535 0.184427
367 2 0.050607 0.84968 0.184604
375 2 0.249282 0.849385 0.184649
383 2 0.449805 0.8499 0.184779
391 2 0.650803 0.85016 0.185043
399 2 0.850983 0.849673 0.185235
365 2 0.150054 0.950003 0.184811
373 2 0.349476 0.950168 0.184741
381 2 0.549829 0.949637 0.184496
389 2 0.749383 0.950178 0.184958
397 2 0.949811 0.949364 0.184831
401 1 -0.000357811 -0.000213838 0.211834
408 2 0.150055 0.050401 0.239107
416 2 0.349713 0.0503467 0.238935
424 2 0.550508 0.049522 0.238774
425 1 0.599736 -0.000159459 0.211497
432 2 0.749886 0.0507231 0.238578
433 1 0.799449 0.000516137 0.211539
440 2 0.949306 0.04934 0.238946
406 2 0.0498483 0.149876 0.238751
403 1 0.100144 0.10012 0.211939
411 1 0.299197 0.0998264 0.212007
414 2 0.249817 0.150594 0.238924
422 2 0.449691 0.149866 0.238565
419 1 0.500164 0.0996226 0.211912
430 2 0.649523 0.150791 0.23845
427 1 0.699354 0.100595 0.211623
435 1 0.899429 0.0992314 0.211812
438 2 0.850361 0.150137 0.23892
448 2 0.150094 0.250051 0.238594
449 1 0.199965 0.199889 0.211948
457 1 0.399817 0.200613 0.212065
456 2 0.34996 0.250042 0.239051
464 2 0.549578 0.250275 0.238863
465 1 0.599235 0.200676 0.211884
473 1 0.800074 0.19993 0.211544
472 2 0.750299 0.249775 0.238602
441 1 0.999661 0.199392 0.211584
443 1 0.100083 0.30019 0.211714
451 1 0.300075 0.299275 0.211854
459 1 0.499787 0.300046 0.211574
467 1 0.70022 0.299528 0.211746
475 1 0.899843 0.299587 0.211734
480 2 0.95048 0.250191 0.238677
446 2 0.0502744 0.349589 0.238544
481 1 0.000603132 0.399744 0.211576
489 1 0.199115 0.399837 0.211976
454 2 0.249805 0.349802 0.238519
497 1 0.399938 0.400663 0.211988
462 2 0.450121 0.350552 0.238758
470 2 0.650151 0.349223 0.238735
505 1 0.600049 0.399814 0.211887
513 1 0.799766 0.399933 0.211521
478 2 0.84982 0.350275 0.238517
488 2 0.149581 0.450361 0.238782
491 1 0.300149 0.50045 0.211732
496 2 0.3496 0.450136 0.238758
504 2 0.549522 0.449083 0.238938
499 1 0.500427 0.499725 0.212027
512 2 0.749748 0.449736 0.238744
515 1 0.899479 0.499805 0.211916
520 2 0.950394 0.449948 0.238449
486 2 0.0500917 0.550139 0.238948
483 1 0.099476 0.500294 0.212023
494 2 0.249601 0.550209 0.238757
502 2 0.449546 0.550313 0.238661
510 2 0.649518 0.549595 0.238914
507 1 0.699314 0.499974 0.211644
518 2 0.849841 0.550389 0.238955
521 1 0.000755118 0.599531 0.211629
528 2 0.149741 0.649591 0.238628
529 1 0.199822 0.599742 0.211951
536 2 0.350224 0.649775 0.238573
537 1 0.399898 0.600141 0.211502
544 2 0.550521 0.650106 0.238613
545 1 0.600188 0.599608 0.211591
552 2 0.75031 0.650558 0.2384
553 1 0.799954 0.600078 0.21174
560 2 0.950723 0.649515 0.238625
526 2 0.0499035 0.750075 0.238689
523 1 0.100525 0.700453 0.211576
531 1 0.299531 0.69953 0.212024
534 2 0.249338 0.749441 0.238963
539 1 0.500053 0.700517 0.21199
542 2 0.449471 0.750332 0.238958
550 2 0.650399 0.749464 0.238769
547 1 0.700009 0.700343 0.211549
555 1 0.900727 0.699988 0.21156
558 2 0.850287 0.749557 0.238531
569 1 0.199748 0.799722 0.21201
577 1 0.400039 0.800075 0.211755
585 1 0.600501 0.800199 0.211938
593 1 0.800808 0.800305 0.21199
561 1 1.00041 0.800028 0.211428
563 1 0.100474 0.899561 0.211695
568 2 0.150068 0.85015 0.238857
571 1 0.299532 0.899376 0.211519
576 2 0.349838 0.850002 0.238883
579 1 0.500247 0.899413 0.211488
584 2 0.550396 0.849995 0.238666
587 1 0.700228 0.900067 0.212061
592 2 0.750421 0.849898 0.238536
595 1 0.900246 0.900532 0.212049
600 2 0.950246 0.850196 0.238488
566 2 0.0499873 0.949448 0.238628
409 1 0.199751 1.00003 0.211995
574 2 0.25054 0.949688 0.238682
417 1 0.399611 0.999773 0.21198
582 2 0.450475 0.949479 0.238413
590 2 0.64968 0.949624 0.238591
598 2 0.849551 0.950423 0.238379
402 1 0.0996434 -0.000437629 0.26565
410 1 0.300084 0.000326818 0.265857
418 1 0.500382 -0.000620243 0.265732
426 1 0.699479 0.000140464 0.265392
412 1 0.200429 0.100313 0.265909
420 1 0.400321 0.100288 0.265722
428 1 0.600195 0.100575 0.265493
436 1 0.800156 0.099889 0.265817
404 1 0.999265 0.10019 0.265536
442 1 0.0996138 0.200407 0.265744
450 1 0.300342 0.200075 0.265684
458 1 0.49941 0.200066 0.265585
466 1 0.700224 0.199392 0.265607
474 1 0.900453 0.199989 0.265928
444 1 0.000126184 0.300277 0.265621
452 1 0.20015 0.300213 0.265825
460 1 0.400581 0.299904 0.26562
468 1 0.599471 0.300127 0.265764
476 1 0.800011 0.299869 0.265634
482 1 0.0999401 0.399915 0.265416
490 1 0.299905 0.400058 0.265492
498 1 0.499635 0.400288 0.265897
506 1 0.699341 0.39974 0.26566
514 1 0.899977 0.400219 0.265603
500 1 0.399675 0.500028 0.265598
508 1 0.599713 0.499101 0.265533
484 1 -2.12605e-05 0.499803 0.26587
492 1 0.199566 0.499956 0.265514
516 1 0.800726 0.499222 0.265586
522 1 0.100215 0.600016 0.265869
530 1 0.299767 0.600125 0.265712
538 1 0.500155 0.599639 0.26574
546 1 0.700628 0.599945 0.265403
554 1 0.900296 0.600446 0.265706
532 1 0.199109 0.699452 0.265748
540 1 0.399925 0.699828 0.265722
548 1 0.600045 0.69977 0.265891
556 1 0.799465 0.700624 0.265647
524 1 1.0001 0.700032 0.265903
562 1 0.100081 0.79986 0.265826
570 1 0.299573 0.799572 0.265582
578 1 0.500552 0.799663 0.265354
586 1 0.700321 0.800026 0.265544
594 1 0.900091 0.799888 0.26541
564 1 0.000130026 0.89991 0.265688
572 1 0.200083 0.899739 0.265677
580 1 0.400663 0.900162 0.265536
588 1 0.600054 0.900084 0.265754
596 1 0.800431 0.899922 0.265263
434 1 0.899351 0.999294 0.265615
407 2 0.0498537 0.050545 0.292653
601 1 0.000182545 0.000414253 0.319835
609 1 0.199412 8.86407e-05 0.320036
415 2 0.249407 0.0497133 0.292914
423 2 0.450076 0.0499324 0.292626
431 2 0.649685 0.0500105 0.292685
625 1 0.599829 0.000230439 0.319581
633 1 0.799698 -0.000762509 0.319599
439 2 0.850345 0.0497355 0.292831
405 2 0.150003 0.150158 0.292458
603 1 0.100367 0.100562 0.31958
611 1 0.29955 0.100109 0.319619
413 2 0.350191 0.15014 0.292659
619 1 0.499622 0.0996364 0.319507
421 2 0.549383 0.150067 0.29245
627 1 0.699624 0.099487 0.319707
429 2 0.750461 0.14969 0.292903
635 1 0.900591 0.10003 0.319852
437 2 0.950184 0.150099 0.292964
447 2 0.0497834 0.249968 0.29279
649 1 0.200022 0.200393 0.319375
455 2 0.250571 0.249893 0.292417
657 1 0.400529 0.200092 0.319534
463 2 0.449879 0.249612 0.292643
471 2 0.649681 0.249675 0.2924
665 1 0.599274 0.200524 0.319385
673 1 0.800727 0.20036 0.319726
641 1 0.999969 0.200017 0.319877
643 1 0.100605 0.300077 0.319457
651 1 0.30001 0.299754 0.319537
659 1 0.499814 0.299913 0.319358
667 1 0.700344 0.299629 0.319456
479 2 0.850202 0.25025 0.292498
675 1 0.900084 0.299352 0.319702
681 1 0.000146356 0.399746 0.319841
445 2 0.149845 0.350406 0.292339
689 1 0.19971 0.39971 0.319322
453 2 0.350012 0.350143 0.292589
697 1 0.400444 0.400128 0.319311
461 2 0.549855 0.350537 0.292523
705 1 0.600654 0.399718 0.319656
469 2 0.750102 0.350507 0.29252
713 1 0.800208 0.400556 0.319483
477 2 0.949827 0.349667 0.292758
487 2 0.0499566 0.449516 0.292853
495 2 0.24936 0.449683 0.292262
503 2 0.450201 0.450489 0.292402
699 1 0.499963 0.499576 0.319758
511 2 0.650365 0.450486 0.29277
519 2 0.850652 0.450072 0.292826
715 1 0.900466 0.500087 0.319521
485 2 0.149768 0.549947 0.292829
683 1 0.0998648 0.499609 0.319811
691 1 0.299678 0.499631 0.319334
493 2 0.350007 0.550091 0.292648
501 2 0.550305 0.549359 0.292832
509 2 0.750684 0.549668 0.292419
707 1 0.70042 0.500252 0.319567
517 2 0.949931 0.550475 0.292755
527 2 0.050458 0.64975 0.292809
535 2 0.249554 0.650262 0.292796
729 1 0.199594 0.600282 0.319622
737 1 0.400249 0.600151 0.319241
543 2 0.450726 0.650361 0.292651
551 2 0.65057 0.64961 0.292537
745 1 0.600062 0.600478 0.31965
753 1 0.800297 0.600281 0.319563
559 2 0.849691 0.650195 0.292304
721 1 1.00051 0.599924 0.319538
525 2 0.149556 0.74964 0.292906
723 1 0.0997118 0.69991 0.319841
731 1 0.300528 0.70029 0.319384
541 2 0.549833 0.750165 0.292754
739 1 0.499964 0.700677 0.31969
747 1 0.699475 0.700294 0.31938
549 2 0.749663 0.750042 0.292681
755 1 0.899849 0.699454 0.319528
769 1 0.199936 0.799582 0.319571
533 2 0.35036 0.750722 0.292395
777 1 0.400534 0.800565 0.319495
785 1 0.599836 0.800237 0.319641
793 1 0.800083 0.799974 0.319381
557 2 0.949653 0.750576 0.292825
761 1 1.00016 0.800854 0.319789
567 2 0.0504308 0.850583 0.292792
763 1 0.100388 0.900631 0.319762
575 2 0.249951 0.849639 0.29254
771 1 0.300055 0.900452 0.319437
583 2 0.45093 0.849706 0.292222
779 1 0.500584 0.899561 0.319517
591 2 0.649969 0.849753 0.292565
787 1 0.699885 0.899354 0.319738
599 2 0.849733 0.85001 0.292306
795 1 0.899567 0.899747 0.319246
565 2 0.150465 0.95006 0.292728
573 2 0.350386 0.950033 0.292499
617 1 0.400284 0.99941 0.319382
581 2 0.550265 0.949751 0.292864
589 2 0.749545 0.949345 0.292333
597 2 0.950407 0.95049 0.292697
608 2 0.149505 0.0506005 0.346786
616 2 0.35019 0.0499457 0.346116
624 2 0.549768 0.049845 0.346576
632 2 0.750047 0.0496749 0.346501
640 2 0.950124 0.0496376 0.346826
606 2 0.0497432 0.149593 0.346621
614 2 0.250115 0.150443 0.346442
622 2 0.450302 0.150152 0.346638
630 2 0.649229 0.149984 0.346297
638 2 0.850125 0.149743 0.346621
648 2 0.14958 0.249584 0.346784
672 2 0.749968 0.249593 0.346632
680 2 0.950599 0.250417 0.346591
656 2 0.350047 0.249509 0.346584
664 2 0.549464 0.250255 0.34665
646 2 0.0504392 0.349977 0.346709
654 2 0.249821 0.34992 0.346196
662 2 0.449649 0.349762 0.346644
670 2 0.650297 0.349341 0.346458
678 2 0.849981 0.349951 0.346276
688 2 0.149922 0.449836 0.346736
696 2 0.350585 0.450103 0.34625
704 2 0.550375 0.449475 0.346625
712 2 0.749607 0.44971 0.346471
720 2 0.94981 0.449782 0.346358
686 2 0.0494268 0.549515 0.346752
694 2 0.250169 0.549986 0.346348
702 2 0.450264 0.550488 0.346194
710 2 0.650267 0.550193 0.346546
718 2 0.85014 0.54966 0.346388
728 2 0.149657 0.64989 0.346765
736 2 0.35041 0.650134 0.346343
744 2 0.549684 0.650481 0.346446
752 2 0.749765 0.65051 0.346354
760 2 0.95014 0.649882 0.346411
726 2 0.0498721 0.750435 0.346532
734 2 0.249741 0.749576 0.346667
750 2 0.649333 0.749676 0.346503
742 2 0.449662 0.749755 0.346553
758 2 0.849835 0.749819 0.346352
768 2 0.150145 0.850138 0.346384
776 2 0.350212 0.850358 0.346537
784 2 0.550526 0.850345 0.346834
792 2 0.750205 0.849545 0.346622
800 2 0.949314 0.850435 0.34659
766 2 0.0500735 0.949927 0.346725
774 2 0.249665 0.949856 0.346781
782 2 0.450599 0.949778 0.346566
790 2 0.64934 0.949616 0.346564
798 2 0.850405 0.949841 0.346536
618 1 0.50039 0.000189267 0.373439
626 1 0.699802 -0.000183647 0.37346
612 1 0.200331 0.0997958 0.373575
620 1 0.399653 0.100177 0.373384
628 1 0.600014 0.0995266 0.37366
636 1 0.800099 0.0997736 0.373376
604 1 0.999757 0.0999366 0.37347
642 1 0.0994242 0.199582 0.373503
650 1 0.299509 0.200082 0.373662
658 1 0.499985 0.200141 0.373277
666 1 0.699852 0.199919 0.373554
674 1 0.900532 0.200147 0.373107
644 1 0.000438375 0.300068 0.373427
652 1 0.200343 0.299995 0.373194
660 1 0.399457 0.300073 0.373529
668 1 0.599569 0.300304 0.373383
676 1 0.79947 0.300421 0.373335
682 1 0.0999769 0.400254 0.373813
690 1 0.300135 0.400321 0.373263
698 1 0.499683 0.399942 0.373612
706 1 0.699606 0.399846 0.373578
714 1 0.899737 0.399982 0.373352
684 1 -0.00100405 0.499959 0.373504
700 1 0.400641 0.500331 0.373217
708 1 0.600112 0.500395 0.373657
692 1 0.200554 0.499909 0.373529
716 1 0.800222 0.49951 0.373507
722 1 0.0992843 0.599932 0.373669
730 1 0.300172 0.599708 0.373369
738 1 0.499717 0.600371 0.37327
746 1 0.700151 0.600642 0.373664
754 1 0.900121 0.59951 0.373511
724 1 -0.000667031 0.700491 0.373333
732 1 0.199901 0.699917 0.373616
740 1 0.400235 0.699992 0.373503
748 1 0.599964 0.69997 0.373716
756 1 0.799501 0.700405 0.373352
762 1 0.10059 0.799685 0.373583
770 1 0.300127 0.799963 0.373412
778 1 0.500556 0.799206 0.373225
786 1 0.699501 0.799611 0.373365
794 1 0.89918 0.800094 0.373469
764 1 -0.000221529 0.899964 0.373634
772 1 0.199333 0.900181 0.373464
780 1 0.400162 0.899685 0.373737
788 1 0.599735 0.90046 0.373829
796 1 0.800008 0.900456 0.373153
602 1 0.0999393 0.999725 0.373366
610 1 0.300063 1.00026 0.37327
634 1 0.899481 1.0005 0.373841
607 2 0.0502873 0.0498286 0.400319
615 2 0.249956 0.0495485 0.400523
623 2 0.449481 0.0495962 0.400288
631 2 0.650391 0.050301 0.400692
833 1 0.800213 3.97056e-05 0.427255
639 2 0.849719 0.0507896 0.400648
801 1 0.999845 0.000107981 0.427225
605 2 0.149495 0.149639 0.400172
803 1 0.100013 0.100181 0.427389
811 1 0.300352 0.0994828 0.427048
613 2 0.349707 0.150143 0.400372
621 2 0.549344 0.150047 0.400294
819 1 0.49938 0.0996881 0.427302
629 2 0.750052 0.149626 0.400388
827 1 0.70027 0.100309 0.42736
835 1 0.899913 0.10019 0.427325
637 2 0.949652 0.150399 0.400418
647 2 0.0498262 0.249721 0.400313
841 1 5.14507e-05 0.199912 0.42749
655 2 0.249667 0.250057 0.400594
849 1 0.199125 0.199614 0.427494
857 1 0.399902 0.200225 0.427286
865 1 0.599748 0.199985 0.42717
873 1 0.800165 0.199927 0.426959
843 1 0.0997528 0.300385 0.427151
851 1 0.300023 0.299909 0.427596
663 2 0.450312 0.249727 0.400135
859 1 0.500415 0.29968 0.427378
671 2 0.649748 0.250214 0.400464
867 1 0.699484 0.299567 0.427448
679 2 0.850216 0.250041 0.400065
875 1 0.899862 0.300389 0.427528
645 2 0.150288 0.349718 0.400224
889 1 0.19956 0.40054 0.427133
653 2 0.349365 0.35012 0.400426
897 1 0.399601 0.399749 0.427247
661 2 0.550295 0.350611 0.400347
905 1 0.600315 0.400608 0.42731
669 2 0.74954 0.349581 0.400692
913 1 0.800394 0.399605 0.42734
677 2 0.950154 0.350219 0.400286
881 1 1.00038 0.400364 0.427193
687 2 0.0496832 0.450643 0.400214
883 1 0.0998436 0.499629 0.427488
695 2 0.250612 0.450017 0.400495
891 1 0.300018 0.500229 0.42748
703 2 0.450285 0.450386 0.400706
711 2 0.649997 0.450618 0.400469
907 1 0.70021 0.499623 0.427649
719 2 0.85031 0.450009 0.400621
915 1 0.899695 0.500163 0.427271
685 2 0.150248 0.549651 0.400319
693 2 0.350193 0.54945 0.400237
899 1 0.500495 0.499939 0.427619
701 2 0.549639 0.550292 0.400603
709 2 0.749775 0.549559 0.400448
717 2 0.950131 0.550181 0.400711
727 2 0.0492388 0.650623 0.400281
735 2 0.250244 0.650121 0.400253
929 1 0.200464 0.599948 0.427197
937 1 0.40039 0.599223 0.427319
743 2 0.450225 0.650265 0.400442
751 2 0.649488 0.649897 0.400869
945 1 0.599394 0.6 0.427736
953 1 0.800298 0.599537 0.427242
759 2 0.849748 0.649996 0.400138
921 1 1.00036 0.600176 0.427488
923 1 0.0994139 0.700256 0.427054
931 1 0.299928 0.700084 0.427578
939 1 0.499953 0.70019 0.427287
947 1 0.699793 0.699733 0.427678
749 2 0.749259 0.749746 0.400564
955 1 0.899401 0.699683 0.427552
961 1 -0.000315558 0.799929 0.427518
725 2 0.150293 0.749889 0.400604
969 1 0.199901 0.800592 0.427456
733 2 0.350277 0.749759 0.400642
977 1 0.399674 0.800267 0.42763
741 2 0.550223 0.750122 0.400662
985 1 0.60006 0.800278 0.427355
993 1 0.799478 0.79982 0.427401
757 2 0.949255 0.750088 0.400548
767 2 0.0497845 0.849292 0.400316
963 1 0.0993506 0.899572 0.427478
775 2 0.249716 0.850609 0.400254
971 1 0.300104 0.89972 0.427586
783 2 0.4505 0.849139 0.400356
979 1 0.500253 0.899906 0.427298
791 2 0.6501 0.850248 0.400422
987 1 0.700009 0.899746 0.42737
799 2 0.849071 0.850308 0.400275
995 1 0.899788 0.89975 0.427096
765 2 0.149603 0.9494 0.400392
809 1 0.199427 0.999462 0.427162
773 2 0.349334 0.949594 0.400313
817 1 0.399448 0.999685 0.4274
781 2 0.550225 0.95038 0.400408
825 1 0.600075 0.999967 0.427381
789 2 0.749914 0.949596 0.400307
797 2 0.950062 0.950332 0.400537
808 2 0.149911 0.0498169 0.454291
816 2 0.349769 0.0500403 0.454241
824 2 0.54984 0.0497154 0.454217
832 2 0.749426 0.0495481 0.454095
840 2 0.949968 0.0500226 0.454124
806 2 0.0499832 0.149982 0.45451
814 2 0.249645 0.149096 0.453951
822 2 0.449631 0.14973 0.454555
830 2 0.649542 0.149859 0.454107
838 2 0.849472 0.150038 0.454039
864 2 0.550049 0.249606 0.454197
872 2 0.750091 0.249649 0.453972
848 2 0.149913 0.250791 0.454372
856 2 0.349655 0.249958 0.454416
880 2 0.950387 0.250055 0.454294
846 2 0.0504252 0.350635 0.454214
854 2 0.249903 0.350631 0.45421
862 2 0.44943 0.349329 0.454518
870 2 0.649692 0.349499 0.454252
878 2 0.849909 0.350172 0.454459
888 2 0.150214 0.45045 0.454543
896 2 0.349751 0.449927 0.454486
904 2 0.549768 0.450024 0.454423
912 2 0.750675 0.449652 0.454516
920 2 0.949763 0.450281 0.454256
886 2 0.0499234 0.550088 0.454302
894 2 0.250318 0.550095 0.454128
902 2 0.450423 0.549409 0.454462
910 2 0.65015 0.550377 0.454177
918 2 0.850277 0.549866 0.454391
928 2 0.149889 0.650376 0.453941
936 2 0.35011 0.649362 0.454273
944 2 0.549862 0.65054 0.454707
952 2 0.749938 0.6497 0.454177
960 2 0.949985 0.649567 0.454222
934 2 0.250319 0.750534 0.454438
926 2 0.0498946 0.74988 0.454205
942 2 0.450432 0.75046 0.454168
950 2 0.649658 0.750399 0.454188
958 2 0.84945 0.750229 0.454443
968 2 0.149954 0.850419 0.454382
976 2 0.349916 0.85014 0.454606
984 2 0.549859 0.850219 0.454502
992 2 0.749905 0.850156 0.454357
1000 2 0.949775 0.850489 0.454406
966 2 0.0501981 0.95054 0.454401
974 2 0.250148 0.950351 0.454223
982 2 0.450259 0.950381 0.454552
990 2 0.650554 0.950584 0.454034
998 2 0.850422 0.94989 0.454391
807 2 0.0498489 0.0493386 0.50832
802 1 0.100262 0.000367436 0.48148
810 1 0.300276 -0.000396442 0.481205
815 2 0.250456 0.0497977 0.508146
823 2 0.449565 0.0498878 0.508468
818 1 0.500195 0.000399455 0.481642
831 2 0.649766 0.050294 0.508536
839 2 0.849676 0.0504726 0.508138
804 1 0.000110385 0.0994832 0.481425
805 2 0.150037 0.149708 0.508437
812 1 0.199692 0.099907 0.481294
813 2 0.349822 0.150317 0.508158
820 1 0.399824 0.0996217 0.481465
821 2 0.54989 0.149686 0.508095
828 1 0.600094 0.0997716 0.481223
829 2 0.749185 0.149848 0.508136
836 1 0.79909 0.100029 0.480916
837 2 0.950016 0.150109 0.508361
847 2 0.0497257 0.250064 0.508387
842 1 0.100378 0.200318 0.481373
850 1 0.299263 0.199676 0.481002
863 2 0.45024 0.250448 0.508525
858 1 0.50015 0.200457 0.481424
871 2 0.650387 0.249997 0.508322
866 1 0.699548 0.200248 0.481005
874 1 0.900326 0.199555 0.481065
879 2 0.849846 0.249841 0.507939
844 1 8.39413e-06 0.299973 0.481218
852 1 0.200479 0.300046 0.481308
855 2 0.250473 0.249997 0.508495
860 1 0.399518 0.299401 0.48148
868 1 0.599715 0.299882 0.481393
876 1 0.800137 0.299775 0.481026
845 2 0.150229 0.349639 0.50823
882 1 0.100106 0.400316 0.481622
890 1 0.300053 0.399884 0.481405
853 2 0.350138 0.349923 0.508115
898 1 0.499775 0.399862 0.481477
861 2 0.550768 0.350749 0.508372
906 1 0.699276 0.400155 0.481146
869 2 0.749697 0.349991 0.507992
914 1 0.899895 0.39956 0.48121
877 2 0.949737 0.34988 0.508316
887 2 0.0494374 0.449633 0.5085
895 2 0.249894 0.449604 0.508151
903 2 0.449429 0.450487 0.508376
911 2 0.650452 0.45058 0.508546
919 2 0.85049 0.449539 0.508014
885 2 0.150427 0.549965 0.50796
892 1 0.20063 0.500361 0.481129
893 2 0.350211 0.549913 0.508731
900 1 0.399431 0.500549 0.481456
901 2 0.549831 0.550348 0.508216
908 1 0.600318 0.499865 0.481221
909 2 0.749994 0.549664 0.50817
916 1 0.80063 0.49987 0.481333
884 1 1.0002 0.499641 0.48143
917 2 0.950517 0.550304 0.508389
927 2 0.0495798 0.650106 0.508481
922 1 0.0996936 0.600646 0.481274
930 1 0.300243 0.599246 0.481422
935 2 0.250251 0.650038 0.508109
943 2 0.450095 0.650211 0.50832
938 1 0.499488 0.599758 0.481388
951 2 0.650282 0.650493 0.508264
946 1 0.699973 0.600174 0.481427
954 1 0.900246 0.599801 0.481346
959 2 0.849777 0.650634 0.508228