ITEM: TIMESTEP
400
ITEM: NUMBER OF ATOMS
1250
ITEM: BOX BOUNDS pp pp pp
0.0000000000000000e+00 3.0500000000000000e+01
0.0000000000000000e+00 3.0500000000000000e+01
-1.2199999999999999e+01 4.8799999999999997e+01
ITEM: ATOMS id type xs ys zs
1 1 0 0 0
8 2 0.15 0.05 0.025
9 1 0.2 0 0
16 2 0.35 0.05 0.025
17 1 0.4 0 0
24 2 0.55 0.05 0.025
25 1 0.6 0 0
32 2 0.75 0.05 0.025
33 1 0.8 0 0
40 2 0.95 0.05 0.025
6 2 0.05 0.15 0.025
3 1 0.1 0.1 0
14 2 0.25 0.15 0.025
11 1 0.3 0.1 0
22 2 0.45 0.15 0.025
19 1 0.5 0.1 0
27 1 0.7 0.1 0
30 2 0.65 0.15 0.025
35 1 0.9 0.1 0
38 2 0.85 0.15 0.025
41 1 0 0.2 0
48 2 0.15 0.25 0.025
49 1 0.2 0.2 0
56 2 0.35 0.25 0.025
57 1 0.4 0.2 0
64 2 0.55 0.25 0.025
65 1 0.6 0.2 0
72 2 0.75 0.25 0.025
73 1 0.8 0.2 0
80 2 0.95 0.25 0.025
46 2 0.05 0.35 0.025
43 1 0.1 0.3 0
54 2 0.25 0.35 0.025
51 1 0.3 0.3 0
62 2 0.45 0.35 0.025
59 1 0.5 0.3 0
67 1 0.7 0.3 0
70 2 0.65 0.35 0.025
75 1 0.9 0.3 0
78 2 0.85 0.35 0.025
81 1 0 0.4 0
88 2 0.15 0.45 0.025
89 1 0.2 0.4 0
96 2 0.35 0.45 0.025
97 1 0.4 0.4 0
104 2 0.55 0.45 0.025
105 1 0.6 0.4 0
112 2 0.75 0.45 0.025
113 1 0.8 0.4 0
120 2 0.95 0.45 0.025
83 1 0.1 0.5 0
91 1 0.3 0.5 0
99 1 0.5 0.5 0
107 1 0.7 0.5 0
115 1 0.9 0.5 0
86 2 0.05 0.55 0.025
121 1 0 0.6 0
94 2 0.25 0.55 0.025
129 1 0.2 0.6 0
102 2 0.45 0.55 0.025
137 1 0.4 0.6 0
145 1 0.6 0.6 0
110 2 0.65 0.55 0.025
153 1 0.8 0.6 0
118 2 0.85 0.55 0.025
123 1 0.1 0.7 0
128 2 0.15 0.65 0.025
131 1 0.3 0.7 0
136 2 0.35 0.65 0.025
139 1 0.5 0.7 0
144 2 0.55 0.65 0.025
147 1 0.7 0.7 0
152 2 0.75 0.65 0.025
155 1 0.9 0.7 0
160 2 0.95 0.65 0.025
126 2 0.05 0.75 0.025
161 1 0 0.8 0
134 2 0.25 0.75 0.025
169 1 0.2 0.8 0
142 2 0.45 0.75 0.025
177 1 0.4 0.8 0
185 1 0.6 0.8 0
150 2 0.65 0.75 0.025
193 1 0.8 0.8 0
158 2 0.85 0.75 0.025
163 1 0.1 0.9 0
168 2 0.15 0.85 0.025
171 1 0.3 0.9 0
176 2 0.35 0.85 0.025
179 1 0.5 0.9 0
184 2 0.55 0.85 0.025
187 1 0.7 0.9 0
192 2 0.75 0.85 0.025
195 1 0.9 0.9 0
200 2 0.95 0.85 0.025
166 2 0.05 0.95 0.025
174 2 0.25 0.95 0.025
182 2 0.45 0.95 0.025
190 2 0.65 0.95 0.025
198 2 0.85 0.95 0.025
7 2 0.050161 0.050549 0.0818275
2 1 0.1 0 0.05
15 2 0.2496 0.0499682 0.0821613
10 1 0.3 0 0.05
23 2 0.450399 0.0503192 0.0821294
18 1 0.5 0 0.05
26 1 0.7 0 0.05
31 2 0.649917 0.0497339 0.082005
34 1 0.9 0 0.05
39 2 0.850682 0.0503669 0.0817552
4 1 0 0.1 0.05
5 2 0.149982 0.150462 0.0815029
12 1 0.2 0.1 0.05
13 2 0.350006 0.150481 0.0821774
20 1 0.4 0.1 0.05
21 2 0.550781 0.150942 0.0815217
28 1 0.6 0.1 0.05
29 2 0.750694 0.149918 0.0814935
36 1 0.8 0.1 0.05
37 2 0.950497 0.149847 0.0820105
47 2 0.049462 0.25025 0.081449
42 1 0.1 0.2 0.05
55 2 0.249549 0.250161 0.0819202
50 1 0.3 0.2 0.05
63 2 0.449661 0.24949 0.0818667
58 1 0.5 0.2 0.05
66 1 0.7 0.2 0.05
71 2 0.650675 0.249596 0.0819044
74 1 0.9 0.2 0.05
79 2 0.850059 0.25087 0.0818355
44 1 0 0.3 0.05
45 2 0.149147 0.350189 0.0818675
52 1 0.2 0.3 0.05
53 2 0.349726 0.349907 0.0816879
60 1 0.4 0.3 0.05
61 2 0.550557 0.34992 0.0819592
68 1 0.6 0.3 0.05
69 2 0.750282 0.349558 0.08187
76 1 0.8 0.3 0.05
77 2 0.949878 0.350176 0.0818562
87 2 0.0493584 0.449418 0.0818356
82 1 0.1 0.4 0.05
95 2 0.250294 0.450146 0.081952
90 1 0.3 0.4 0.05
103 2 0.450412 0.450634 0.0817621
98 1 0.5 0.4 0.05
106 1 0.7 0.4 0.05
111 2 0.650059 0.449214 0.0821366
114 1 0.9 0.4 0.05
119 2 0.849825 0.449032 0.0816442
84 1 0 0.5 0.05
92 1 0.2 0.5 0.05
100 1 0.4 0.5 0.05
108 1 0.6 0.5 0.05
116 1 0.8 0.5 0.05
85 2 0.149419 0.549849 0.0816163
122 1 0.1 0.6 0.05
93 2 0.350103 0.550619 0.0822984
130 1 0.3 0.6 0.05
138 1 0.5 0.6 0.05
101 2 0.550393 0.550724 0.0820341
146 1 0.7 0.6 0.05
109 2 0.750407 0.549494 0.0817938
154 1 0.9 0.6 0.05
117 2 0.950006 0.550494 0.0819795
124 1 0 0.7 0.05
127 2 0.0506173 0.650524 0.0815706
132 1 0.2 0.7 0.05
135 2 0.249268 0.649383 0.0820178
140 1 0.4 0.7 0.05
143 2 0.450308 0.650784 0.0818339
148 1 0.6 0.7 0.05
151 2 0.649866 0.650279 0.0817923
156 1 0.8 0.7 0.05
159 2 0.850005 0.650261 0.0820645
125 2 0.151204 0.750702 0.0821649
162 1 0.1 0.8 0.05
133 2 0.350309 0.749855 0.081666
170 1 0.3 0.8 0.05
178 1 0.5 0.8 0.05
141 2 0.549669 0.75048 0.0822468
186 1 0.7 0.8 0.05
149 2 0.749765 0.749957 0.0818644
194 1 0.9 0.8 0.05
157 2 0.950192 0.750475 0.0819381
164 1 0 0.9 0.05
167 2 0.0497995 0.850389 0.0814617
172 1 0.2 0.9 0.05
175 2 0.251083 0.85058 0.0819518
180 1 0.4 0.9 0.05
183 2 0.450222 0.850398 0.0817943
188 1 0.6 0.9 0.05
191 2 0.65027 0.849351 0.082189
196 1 0.8 0.9 0.05
199 2 0.850033 0.849535 0.0820467
165 2 0.149066 0.949393 0.0820967
173 2 0.34986 0.949829 0.0821706
181 2 0.548922 0.949197 0.0818054
189 2 0.750641 0.95027 0.0815519
197 2 0.949488 0.949645 0.0819842
217 1 0.399248 0.00107102 0.113601
233 1 0.800734 4.28849e-05 0.113383
203 1 0.10044 0.10069 0.113183
211 1 0.299494 0.100577 0.113723
219 1 0.501045 0.10114 0.113272
227 1 0.70061 0.100394 0.113225
235 1 0.899774 0.100501 0.1137
249 1 0.200088 0.199411 0.11354
257 1 0.400074 0.200148 0.11389
265 1 0.599811 0.200583 0.113688
273 1 0.800023 0.200127 0.113297
241 1 1.00053 0.200286 0.113425
243 1 0.0996213 0.299208 0.113191
251 1 0.299985 0.30004 0.113572
259 1 0.499856 0.299833 0.11358
267 1 0.700604 0.299464 0.113831
275 1 0.900119 0.300339 0.113784
281 1 -3.94177e-05 0.399506 0.113986
289 1 0.199713 0.400092 0.113347
297 1 0.399933 0.400184 0.113456
305 1 0.600374 0.399251 0.114021
313 1 0.79984 0.39985 0.113479
283 1 0.0999995 0.499291 0.113442
291 1 0.299923 0.500082 0.113961
299 1 0.500294 0.500479 0.113727
307 1 0.700153 0.499988 0.113601
315 1 0.899696 0.499436 0.113329
329 1 0.198693 0.599586 0.113572
337 1 0.400613 0.601069 0.114023
345 1 0.601079 0.599903 0.113588
353 1 0.799251 0.600407 0.11341
321 1 0.999965 0.601547 0.113595
323 1 0.100353 0.700357 0.113403
331 1 0.300146 0.699794 0.11341
339 1 0.499184 0.700859 0.114085
347 1 0.700133 0.699632 0.113679
355 1 0.90017 0.700528 0.113496
361 1 0.000497887 0.800753 0.1134
369 1 0.201466 0.800698 0.113734
377 1 0.399588 0.800695 0.113766
385 1 0.600288 0.79976 0.114237
393 1 0.799224 0.800278 0.11386
363 1 0.09918 0.899169 0.113734
371 1 0.300069 0.900147 0.114116
379 1 0.499967 0.899534 0.11389
387 1 0.70093 0.900368 0.113487
395 1 0.900275 0.899143 0.114051
201 1 -0.000114963 1.00044 0.113394
209 1 0.199429 0.999306 0.11375
225 1 0.5984 1.00006 0.113549
208 2 0.149739 0.0505879 0.145194
216 2 0.349184 0.0505989 0.145259
224 2 0.549178 0.0507814 0.145574
232 2 0.750063 0.0498957 0.144993
240 2 0.95 0.0506411 0.145118
206 2 0.0507158 0.150179 0.145226
214 2 0.250311 0.150397 0.145791
222 2 0.449821 0.149211 0.145166
230 2 0.649968 0.149734 0.145026
238 2 0.848968 0.149656 0.145315
248 2 0.150349 0.250108 0.145136
256 2 0.349888 0.250192 0.145544
264 2 0.549821 0.250253 0.145722
272 2 0.750794 0.249692 0.145465
280 2 0.949352 0.248833 0.145338
246 2 0.0507641 0.349397 0.145292
254 2 0.249908 0.350132 0.145015
262 2 0.449731 0.349854 0.145585
270 2 0.650977 0.349741 0.145517
278 2 0.849952 0.350477 0.145293
288 2 0.150007 0.449565 0.145498
296 2 0.349825 0.44971 0.145894
304 2 0.549943 0.449459 0.145467
312 2 0.750231 0.450122 0.145305
320 2 0.949662 0.449728 0.145526
286 2 0.0500778 0.55012 0.145195
294 2 0.249351 0.550303 0.145358
302 2 0.450671 0.550593 0.145521
310 2 0.650369 0.549882 0.145476
318 2 0.849529 0.550377 0.144811
328 2 0.150218 0.650907 0.145443
336 2 0.349608 0.650606 0.145506
344 2 0.55013 0.649341 0.144874
352 2 0.750561 0.650124 0.145634
360 2 0.948515 0.649949 0.145737
326 2 0.0498852 0.749745 0.145078
334 2 0.250902 0.750233 0.145333
342 2 0.449686 0.751072 0.146222
350 2 0.651001 0.749969 0.14594
358 2 0.850174 0.75016 0.145153
368 2 0.150234 0.849854 0.145096
376 2 0.349612 0.850375 0.146071
384 2 0.550839 0.850874 0.14575
392 2 0.750284 0.850918 0.145938
400 2 0.950406 0.849271 0.145844
366 2 0.0505384 0.950723 0.145263
374 2 0.248877 0.949255 0.145691
382 2 0.449859 0.950814 0.144864
390 2 0.649381 0.94973 0.144873
398 2 0.850135 0.949851 0.145443
207 2 0.0498969 0.0502077 0.209026
215 2 0.249568 0.049529 0.209034
210 1 0.299388 0.000260463 0.17668
223 2 0.45029 0.0490737 0.209127
231 2 0.649691 0.0501598 0.208728
239 2 0.850249 0.0488065 0.208236
205 2 0.150463 0.150136 0.209436
212 1 0.199803 0.100169 0.177286
213 2 0.350814 0.149032 0.209647
220 1 0.400191 0.0991446 0.177195
228 1 0.599456 0.101076 0.177358
221 2 0.548943 0.150699 0.209258
236 1 0.799612 0.0992154 0.177165
229 2 0.749873 0.149649 0.208629
204 1 0.999797 0.100427 0.17703
237 2 0.948648 0.14887 0.209056
247 2 0.0504345 0.249739 0.209036
242 1 0.101088 0.199887 0.177256
255 2 0.249327 0.249594 0.209093
250 1 0.300806 0.19969 0.177721
263 2 0.449804 0.249326 0.209153
258 1 0.498976 0.199725 0.176987
266 1 0.700213 0.199525 0.17677
271 2 0.650442 0.249091 0.208898
274 1 0.899101 0.199433 0.177315
279 2 0.849271 0.250382 0.208689
245 2 0.14974 0.350111 0.208942
252 1 0.200056 0.300463 0.177109
253 2 0.350973 0.349213 0.209529
260 1 0.400328 0.299308 0.177415
268 1 0.600708 0.300126 0.177269
261 2 0.550383 0.349755 0.209104
276 1 0.800065 0.300611 0.176817
269 2 0.749823 0.349658 0.208854
244 1 1.00012 0.299164 0.176828
277 2 0.950168 0.349507 0.208867
287 2 0.0505752 0.450208 0.208927
282 1 0.0997867 0.399705 0.177166
295 2 0.249212 0.450004 0.209648
290 1 0.299301 0.39899 0.177906
303 2 0.450396 0.450403 0.209033
298 1 0.500276 0.399656 0.177383
306 1 0.700553 0.400095 0.177095
311 2 0.649556 0.449371 0.208655
314 1 0.899425 0.399968 0.177356
319 2 0.849346 0.450339 0.20887
284 1 0.000409382 0.499621 0.177063
292 1 0.200136 0.499904 0.177301
300 1 0.400781 0.500759 0.17715
308 1 0.599868 0.499994 0.177006
316 1 0.799923 0.500754 0.176998
322 1 0.100642 0.599829 0.177127
285 2 0.149893 0.549331 0.209315
330 1 0.299655 0.60009 0.176998
293 2 0.350303 0.550579 0.208639
338 1 0.501241 0.599521 0.17707
301 2 0.54999 0.549395 0.208992
346 1 0.699789 0.600409 0.1774
309 2 0.749626 0.549924 0.209123
354 1 0.899822 0.598294 0.177471
317 2 0.950621 0.548646 0.209336
327 2 0.0505662 0.650132 0.208937
332 1 0.201337 0.699899 0.177393
335 2 0.250034 0.648916 0.2094
340 1 0.400104 0.699312 0.177366
343 2 0.451333 0.64958 0.208807
348 1 0.599513 0.699293 0.176975
351 2 0.649668 0.650351 0.209105
356 1 0.800791 0.700344 0.177379
359 2 0.850593 0.649486 0.209187
324 1 1.00066 0.69904 0.17673
362 1 0.100224 0.799728 0.176597
325 2 0.150679 0.75068 0.20857
370 1 0.300321 0.799492 0.177653
333 2 0.349952 0.74877 0.209359
378 1 0.501344 0.800805 0.177598
341 2 0.550871 0.749819 0.209262
386 1 0.701331 0.799975 0.177763
349 2 0.751479 0.750646 0.209635
394 1 0.899876 0.799158 0.177347
357 2 0.951273 0.749286 0.208402
364 1 0.00102021 0.900141 0.177192
367 2 0.0510298 0.849705 0.20868
372 1 0.198906 0.899465 0.177313
375 2 0.248741 0.848926 0.20884
380 1 0.400771 0.900872 0.177146
383 2 0.449673 0.849788 0.208965
388 1 0.601475 0.899798 0.177456
391 2 0.651286 0.850196 0.209368
396 1 0.801154 0.900063 0.17807
399 2 0.851786 0.849658 0.209681
202 1 0.100513 1.00031 0.177229
365 2 0.150041 0.950168 0.209134
373 2 0.349167 0.950191 0.20881
218 1 0.499789 0.999527 0.176969
381 2 0.549772 0.949415 0.208489
226 1 0.699397 0.99973 0.176756
389 2 0.749006 0.950165 0.209135
234 1 0.901507 0.999303 0.176793
397 2 0.950026 0.94902 0.208974
403 1 0.100266 0.100018 0.240946
411 1 0.298669 0.0998351 0.241129
419 1 0.500202 0.0991887 0.241079
427 1 0.699012 0.100974 0.240618
435 1 0.898926 0.0985313 0.240896
449 1 0.199992 0.19985 0.241017
457 1 0.399656 0.20093 0.241204
465 1 0.598714 0.201196 0.240781
473 1 0.800244 0.199523 0.240504
441 1 0.999589 0.199096 0.240495
443 1 0.100438 0.300157 0.240623
451 1 0.300109 0.298859 0.240938
459 1 0.499533 0.300114 0.240644
467 1 0.700519 0.299376 0.240616
475 1 0.899729 0.29944 0.240649
481 1 0.000906729 0.399484 0.240542
489 1 0.198533 0.399882 0.241068
497 1 0.400003 0.401108 0.24102
505 1 0.600154 0.399558 0.241015
513 1 0.799392 0.399989 0.240474
483 1 0.0991134 0.500277 0.241151
491 1 0.300294 0.501051 0.240759
499 1 0.500485 0.499683 0.241254
507 1 0.698839 0.499678 0.240775
515 1 0.899073 0.499929 0.241039
529 1 0.199546 0.59955 0.240921
537 1 0.400148 0.600405 0.240374
545 1 0.600297 0.599358 0.240697
553 1 0.80005 0.59996 0.240729
521 1 1.00129 0.599346 0.240574
523 1 0.100709 0.700671 0.24049
531 1 0.299286 0.699513 0.241206
539 1 0.499655 0.700683 0.241161
547 1 0.700078 0.700385 0.240434
555 1 0.901382 0.699748 0.240524
561 1 0.000406467 0.799991 0.240298
569 1 0.199616 0.799595 0.241169
577 1 0.399745 0.800113 0.240799
585 1 0.600995 0.800018 0.240967
593 1 0.801319 0.80035 0.241145
563 1 0.100583 0.899381 0.240618
571 1 0.299397 0.898763 0.240343
579 1 0.500553 0.898966 0.240391
587 1 0.700486 0.900089 0.241195
595 1 0.900189 0.900769 0.241187
409 1 0.199617 1.00006 0.241188
417 1 0.399315 0.99981 0.24107
425 1 0.599686 0.999436 0.240348
433 1 0.799166 1.00097 0.240435
401 1 0.999511 0.999702 0.240788
408 2 0.150099 0.0506079 0.273265
410 1 0.299885 0.000410803 0.304715
416 2 0.349723 0.0506531 0.272922
418 1 0.500429 -0.000988272 0.304457
424 2 0.550776 0.0493039 0.272748
432 2 0.749591 0.0512753 0.272344
434 1 0.89891 -0.00125805 0.304421
440 2 0.948865 0.0489484 0.272878
404 1 -0.00121203 0.100219 0.304257
406 2 0.0497035 0.149997 0.27268
412 1 0.200767 0.100468 0.304684
414 2 0.249795 0.150898 0.272968
420 1 0.400421 0.100287 0.304475
422 2 0.449697 0.149854 0.27231
428 1 0.600303 0.100861 0.304168
430 2 0.649238 0.151327 0.272124
436 1 0.800497 0.0997188 0.304593
438 2 0.850426 0.150312 0.272813
442 1 0.0994926 0.200577 0.304319
448 2 0.150076 0.250279 0.272568
450 1 0.300612 0.19986 0.304424
456 2 0.349986 0.250272 0.273111
458 1 0.498966 0.199961 0.304095
464 2 0.549022 0.250651 0.272826
466 1 0.700592 0.199067 0.304303
472 2 0.750452 0.249445 0.272499
474 1 0.901053 0.200206 0.304658
480 2 0.950634 0.25002 0.272593
444 1 0.000374946 0.30044 0.304432
446 2 0.0503318 0.349503 0.272387
452 1 0.200197 0.300125 0.304474
454 2 0.249822 0.349653 0.272328
460 1 0.40084 0.300064 0.304426
462 2 0.450318 0.35082 0.272581
468 1 0.59922 0.300209 0.30447
470 2 0.650051 0.348662 0.272549
476 1 0.799989 0.300099 0.304216
478 2 0.849716 0.3503 0.272334
482 1 0.099542 0.400039 0.304014
488 2 0.149227 0.450548 0.272546
490 1 0.299701 0.399776 0.304077
496 2 0.349297 0.450431 0.272625
498 1 0.499283 0.400199 0.304656
504 2 0.549339 0.448426 0.272866
506 1 0.698927 0.399766 0.304357
512 2 0.749417 0.449585 0.272507
514 1 0.900215 0.400241 0.304233
520 2 0.950739 0.449804 0.272222
492 1 0.199172 0.500309 0.304261
500 1 0.399433 0.50016 0.304215
508 1 0.599399 0.498531 0.304318
516 1 0.801105 0.498607 0.304327
484 1 0.999861 0.499754 0.304709
486 2 0.0500389 0.550262 0.273161
522 1 0.100324 0.599967 0.304595
494 2 0.249594 0.550115 0.272684
530 1 0.299592 0.600406 0.304475
502 2 0.449332 0.550367 0.272387
538 1 0.500625 0.599477 0.304388
510 2 0.649292 0.549455 0.272849
546 1 0.701158 0.599844 0.303855
518 2 0.849856 0.550752 0.272876
554 1 0.90047 0.600639 0.304366
524 1 7.62586e-05 0.700032 0.304842
528 2 0.149353 0.649413 0.272401
532 1 0.198403 0.699184 0.30457
536 2 0.350313 0.64958 0.272496
540 1 0.399869 0.69953 0.304495
544 2 0.550705 0.649849 0.272471
548 1 0.600175 0.699771 0.3048
552 2 0.750347 0.650982 0.272092
556 1 0.79924 0.70101 0.304233
560 2 0.95127 0.649425 0.272333
526 2 0.0499163 0.750068 0.272523
562 1 0.100077 0.79987 0.304567
534 2 0.248862 0.748936 0.272967
570 1 0.29927 0.799436 0.304155
542 2 0.449126 0.750364 0.272872
578 1 0.501123 0.799404 0.303893
550 2 0.650446 0.749225 0.272754
586 1 0.700499 0.800125 0.304149
558 2 0.85056 0.749131 0.272351
594 1 0.900074 0.800002 0.303893
564 1 3.2103e-05 0.899827 0.304435
568 2 0.150018 0.849972 0.27284
572 1 0.200348 0.89988 0.30439
576 2 0.349692 0.850008 0.272781
580 1 0.400967 0.900177 0.304229
584 2 0.550612 0.850193 0.272553
588 1 0.599998 0.900042 0.304518
592 2 0.75063 0.849786 0.272392
596 1 0.800476 0.900043 0.303702
600 2 0.950581 0.850073 0.27226
566 2 0.0500293 0.949049 0.272272
402 1 0.0994526 0.999386 0.304485
574 2 0.250801 0.949622 0.272672
582 2 0.451003 0.949296 0.272095
426 1 0.699251 1.00031 0.303921
590 2 0.649285 0.949634 0.272297
598 2 0.849035 0.950822 0.271935
407 2 0.0498329 0.0509394 0.336144
415 2 0.249077 0.049418 0.33666
423 2 0.450036 0.0495467 0.335947
431 2 0.649444 0.0501116 0.336021
439 2 0.850534 0.0495944 0.336576
405 2 0.150002 0.150518 0.335866
413 2 0.350199 0.150099 0.336326
421 2 0.548994 0.150016 0.335951
429 2 0.750624 0.149588 0.336774
437 2 0.950386 0.150172 0.336653
447 2 0.0494406 0.250162 0.336487
455 2 0.250811 0.249908 0.335852
463 2 0.449914 0.249608 0.336076
471 2 0.649773 0.249622 0.335744
479 2 0.850313 0.25034 0.335998
445 2 0.149647 0.350551 0.335703
453 2 0.350057 0.35006 0.335963
461 2 0.54981 0.350944 0.336146
469 2 0.750237 0.350741 0.336013
477 2 0.94969 0.349682 0.336413
487 2 0.0500917 0.449106 0.336384
495 2 0.249049 0.449549 0.335633
503 2 0.450111 0.450981 0.335923
511 2 0.650497 0.450647 0.336358
519 2 0.851156 0.450177 0.336417
485 2 0.149737 0.549582 0.336445
493 2 0.349848 0.550039 0.336114
501 2 0.5506 0.54898 0.336455
509 2 0.751286 0.549509 0.335815
517 2 0.95003 0.550761 0.336254
527 2 0.0506848 0.649842 0.336368
535 2 0.249452 0.650406 0.336354
543 2 0.45119 0.650654 0.336192
551 2 0.650874 0.649193 0.335923
559 2 0.849402 0.650468 0.335615
525 2 0.149285 0.749306 0.336529
533 2 0.350708 0.75116 0.335903
541 2 0.549908 0.75031 0.336273
549 2 0.74941 0.750269 0.336262
557 2 0.949674 0.750907 0.336591
567 2 0.0508431 0.850949 0.336417
575 2 0.24999 0.849428 0.336145
583 2 0.451546 0.849634 0.335533
591 2 0.649996 0.849543 0.336023
599 2 0.849622 0.849754 0.335514
565 2 0.150708 0.950173 0.336207
573 2 0.350625 0.949885 0.335766
581 2 0.550564 0.949673 0.336472
589 2 0.749216 0.948907 0.335604
597 2 0.95061 0.950665 0.336273
609 1 0.199026 0.000221332 0.368783
617 1 0.400716 -0.000917371 0.367743
625 1 0.599714 0.00026667 0.368052
633 1 0.799524 -0.00133073 0.367841
603 1 0.100447 0.100907 0.367911
611 1 0.29944 0.100237 0.367796
619 1 0.499619 0.0996602 0.367995
627 1 0.699575 0.0993635 0.368093
635 1 0.900863 0.0997578 0.368427
641 1 0.00014018 0.200033 0.368396
649 1 0.199915 0.200722 0.367659
657 1 0.400663 0.199844 0.368043
665 1 0.59856 0.200765 0.367723
673 1 0.801181 0.200492 0.368091
643 1 0.10089 0.30018 0.367822
651 1 0.3003 0.299499 0.367875
659 1 0.499672 0.300089 0.367634
667 1 0.700626 0.299192 0.367555
675 1 0.900134 0.299014 0.368095
689 1 0.19933 0.399858 0.367684
697 1 0.400977 0.400148 0.367492
705 1 0.601093 0.399535 0.367906
713 1 0.800245 0.400747 0.367833
681 1 1.00012 0.399226 0.368253
683 1 0.0996943 0.499525 0.368289
691 1 0.299457 0.499228 0.367428
699 1 0.500157 0.499118 0.368217
707 1 0.70077 0.500696 0.367951
715 1 0.90079 0.500225 0.367885
729 1 0.199359 0.600398 0.368157
737 1 0.400489 0.600434 0.36746
745 1 0.600096 0.600672 0.368022
753 1 0.800327 0.600406 0.367856
721 1 1.00076 0.599816 0.368025
723 1 0.0994749 0.699804 0.368438
731 1 0.300781 0.700776 0.36764
739 1 0.499866 0.701036 0.368099
747 1 0.69914 0.70048 0.367769
755 1 0.899673 0.699187 0.367751
761 1 3.7056e-05 0.801465 0.368159
769 1 0.200036 0.799393 0.367954
777 1 0.40088 0.800968 0.367799
785 1 0.599681 0.800428 0.36806
793 1 0.800126 0.799991 0.367607
763 1 0.100572 0.90108 0.368142
771 1 0.299876 0.90062 0.36777
779 1 0.500752 0.899061 0.367945
787 1 0.699786 0.899043 0.368175
795 1 0.899486 0.89983 0.367342
601 1 0.000576956 1.00057 0.368365
608 2 0.149217 0.0509671 0.400115
602 1 0.100151 -0.000446714 0.431497
616 2 0.350442 0.0498566 0.399055
618 1 0.500374 0.000149971 0.43161
624 2 0.549787 0.0500651 0.399665
632 2 0.750035 0.0494133 0.399706
634 1 0.899096 0.000665121 0.432062
640 2 0.949944 0.0493745 0.400208
606 2 0.049604 0.149357 0.399791
614 2 0.249821 0.150689 0.399678
612 1 0.20081 0.099895 0.431544
622 2 0.450379 0.150052 0.39976
620 1 0.399389 0.100226 0.431291
628 1 0.599919 0.0993903 0.431707
630 2 0.648708 0.150139 0.399482
636 1 0.799935 0.0996628 0.431362
638 2 0.85028 0.149646 0.399841
604 1 0.999579 0.0999034 0.431795
648 2 0.149405 0.249256 0.400035
642 1 0.0989657 0.199218 0.431494
656 2 0.349948 0.249174 0.399774
650 1 0.299271 0.200253 0.431749
658 1 0.500096 0.200089 0.431238
664 2 0.549233 0.250533 0.399739
666 1 0.699433 0.199548 0.431574
672 2 0.749951 0.249384 0.399803
674 1 0.900731 0.200292 0.430875
680 2 0.95103 0.25073 0.39984
646 2 0.0510893 0.35 0.399924
644 1 0.000629218 0.300225 0.431554
654 2 0.249969 0.350127 0.399265
652 1 0.200527 0.299832 0.431125
662 2 0.44952 0.349632 0.399744
660 1 0.399049 0.299981 0.431727
668 1 0.599488 0.300335 0.431428
670 2 0.650604 0.348873 0.399656
676 1 0.799275 0.30069 0.431265
678 2 0.849858 0.349905 0.399294
688 2 0.150215 0.449566 0.40001
682 1 0.0999024 0.400312 0.431956
696 2 0.350914 0.450279 0.399261
690 1 0.300138 0.400405 0.430906
698 1 0.499336 0.400069 0.431617
704 2 0.550661 0.449224 0.399974
706 1 0.699314 0.399658 0.431752
712 2 0.749456 0.44954 0.399743
714 1 0.899493 0.400002 0.431305
720 2 0.949625 0.449625 0.399547
692 1 0.201076 0.499727 0.431436
700 1 0.401316 0.500306 0.431047
708 1 0.599881 0.500764 0.431627
716 1 0.800202 0.499185 0.431458
684 1 0.998113 0.499874 0.431512
686 2 0.0491734 0.549197 0.400024
722 1 0.0988567 0.599771 0.431832
694 2 0.250105 0.549969 0.399354
730 1 0.300489 0.599728 0.431262
702 2 0.450325 0.550841 0.399176
738 1 0.499711 0.600493 0.431314
710 2 0.650503 0.55049 0.399778
746 1 0.700109 0.601056 0.431771
718 2 0.85017 0.54942 0.399514
754 1 0.900279 0.599306 0.431408
724 1 -0.00115982 0.70107 0.431268
728 2 0.14937 0.649776 0.400179
732 1 0.199635 0.699772 0.4317
736 2 0.350639 0.650018 0.399523
740 1 0.400142 0.699865 0.431617
744 2 0.549659 0.65092 0.399683
748 1 0.599724 0.699724 0.431881
752 2 0.749535 0.650816 0.39933
756 1 0.799188 0.700721 0.431359
760 2 0.950185 0.649478 0.399578
726 2 0.0498526 0.750724 0.399851
762 1 0.101068 0.79954 0.43149
734 2 0.249821 0.74925 0.399788
770 1 0.300223 0.799872 0.43152
742 2 0.449393 0.74987 0.399678
778 1 0.500894 0.798684 0.431132
750 2 0.648909 0.749481 0.3996
786 1 0.699139 0.799435 0.43135
758 2 0.849794 0.749657 0.399366
794 1 0.89867 0.800172 0.431474
768 2 0.150186 0.849965 0.399545
772 1 0.198956 0.90015 0.431384
776 2 0.350251 0.850624 0.39962
780 1 0.400572 0.899635 0.431811
784 2 0.550826 0.850521 0.400161
788 1 0.599782 0.90055 0.432041
792 2 0.750359 0.849134 0.399878
796 1 0.799827 0.900643 0.431021
800 2 0.948839 0.850694 0.399849
764 1 0.999607 0.899947 0.431695
766 2 0.0498039 0.949748 0.399935
774 2 0.249556 0.949724 0.400023
610 1 0.300187 1.00056 0.431178
782 2 0.450842 0.94947 0.399825
790 2 0.649055 0.949482 0.399712
626 1 0.699491 0.999739 0.431465
798 2 0.850945 0.950007 0.39964
607 2 0.0503977 0.0498573 0.463138
615 2 0.249892 0.0490723 0.463387
623 2 0.449033 0.0492681 0.463009
631 2 0.650692 0.0502039 0.463706
639 2 0.849522 0.0512607 0.463563
605 2 0.149385 0.149489 0.462869
613 2 0.349663 0.150329 0.463163
621 2 0.548982 0.149939 0.463044
629 2 0.750179 0.149492 0.463028
637 2 0.949615 0.150561 0.463245
647 2 0.0496938 0.249573 0.463215
655 2 0.249218 0.250096 0.463673
663 2 0.450385 0.249884 0.462872
671 2 0.649383 0.250366 0.463106
679 2 0.850479 0.250325 0.462625
645 2 0.150553 0.349499 0.462914
653 2 0.348836 0.350023 0.463218
661 2 0.550393 0.350901 0.463352
669 2 0.749178 0.349465 0.463686
677 2 0.950248 0.350237 0.46307
687 2 0.0494693 0.451125 0.462954
695 2 0.250981 0.450103 0.463357
703 2 0.450302 0.450684 0.463642
711 2 0.650241 0.450985 0.463324
719 2 0.850409 0.449751 0.463429
685 2 0.150134 0.549462 0.463249
693 2 0.350272 0.549157 0.463015
701 2 0.549304 0.550653 0.463404
709 2 0.749655 0.549197 0.463273
717 2 0.950247 0.550382 0.463788
727 2 0.048607 0.650929 0.463019
735 2 0.250661 0.650201 0.463072
743 2 0.450162 0.650185 0.463328
751 2 0.649195 0.649737 0.46399
759 2 0.849539 0.650052 0.462787
725 2 0.150661 0.749859 0.463599
733 2 0.350324 0.749721 0.463512
741 2 0.550388 0.750173 0.463572
749 2 0.748721 0.749543 0.463449
757 2 0.948655 0.75017 0.463482
767 2 0.0496324 0.84882 0.463125
775 2 0.249672 0.850838 0.463009
783 2 0.450884 0.84843 0.463175
791 2 0.650082 0.850248 0.463156
799 2 0.848285 0.850337 0.46303
765 2 0.148808 0.949002 0.463248
773 2 0.348936 0.949456 0.463128
781 2 0.550044 0.950762 0.463383
789 2 0.749918 0.949469 0.463181
797 2 0.949845 0.950403 0.463314
801 1 1.00014 0.000259345 0.494949
803 1 0.0998557 0.100168 0.495138
811 1 0.300432 0.0992898 0.494594
819 1 0.498955 0.0995196 0.494938
827 1 0.700375 0.100556 0.495161
835 1 0.899989 0.100485 0.495064
849 1 0.198452 0.199459 0.495042
857 1 0.399898 0.200328 0.495002
865 1 0.599514 0.199763 0.494645
873 1 0.800245 0.200026 0.494296
841 1 1.00017 0.19977 0.495121
843 1 0.0996181 0.300426 0.494652
851 1 0.299824 0.299982 0.495268
859 1 0.500466 0.299841 0.494856
867 1 0.699243 0.299279 0.495182
875 1 0.899839 0.300464 0.495128
881 1 0.000386262 0.400759 0.494796
889 1 0.199259 0.400836 0.494739
897 1 0.399515 0.399679 0.49502
905 1 0.600428 0.400925 0.495146
913 1 0.800446 0.399428 0.494956
883 1 0.0998619 0.499654 0.4951
891 1 0.300354 0.500169 0.495105
899 1 0.500726 0.49996 0.495327
907 1 0.700483 0.499331 0.495521
915 1 0.899722 0.50042 0.495012
921 1 0.000661489 0.60035 0.495038
929 1 0.200586 0.599972 0.494735
937 1 0.400808 0.598726 0.494876
945 1 0.598754 0.600171 0.495586
953 1 0.800423 0.599304 0.49486
923 1 0.0991188 0.700363 0.494597
931 1 0.299837 0.699923 0.495296
939 1 0.500164 0.700202 0.49507
947 1 0.699443 0.699703 0.495464
955 1 0.898871 0.69953 0.49532
969 1 0.200045 0.800899 0.495149
977 1 0.399508 0.800623 0.495375
985 1 0.599954 0.800902 0.495053
993 1 0.799143 0.799869 0.495
961 1 0.999261 0.799985 0.495254
963 1 0.0988576 0.899333 0.495037
971 1 0.300023 0.89948 0.495335
979 1 0.500165 0.900128 0.494898
987 1 0.700141 0.89971 0.495054
995 1 0.89966 0.899691 0.494617
809 1 0.199119 0.99919 0.49482
817 1 0.399114 0.999242 0.495005
825 1 0.600174 1.00016 0.494935
833 1 0.800258 0.99968 0.494919
808 2 0.149913 0.0497162 0.52668
816 2 0.349703 0.0500679 0.526844
824 2 0.549726 0.0496829 0.526704
832 2 0.749183 0.0492368 0.526393
840 2 0.949879 0.0500759 0.526614
806 2 0.0500834 0.14997 0.527197
814 2 0.249543 0.148374 0.526189
812 1 0.199694 0.0996508 0.558665
822 2 0.449532 0.149864 0.527187
820 1 0.399434 0.0993398 0.558913
828 1 0.600035 0.099484 0.558424
830 2 0.649286 0.149821 0.526451
836 1 0.79852 0.100035 0.558079
838 2 0.849241 0.150042 0.52643
804 1 1.00001 0.099247 0.558892
848 2 0.149758 0.251365 0.526784
842 1 0.10056 0.200497 0.558854
856 2 0.349551 0.249681 0.526987
850 1 0.298629 0.199296 0.558156
858 1 0.499902 0.200608 0.558754
864 2 0.550295 0.24939 0.52675
866 1 0.699336 0.200225 0.558099
872 2 0.750281 0.249432 0.526267
874 1 0.900336 0.199305 0.558186
880 2 0.950374 0.250124 0.526696
846 2 0.0505695 0.350999 0.526871
844 1 0.00029515 0.300348 0.558498
854 2 0.249703 0.351125 0.526589
852 1 0.201103 0.300071 0.558704
862 2 0.449176 0.348967 0.527024
860 1 0.399287 0.29885 0.558922
868 1 0.599539 0.299542 0.558766
870 2 0.649293 0.349313 0.526699
876 1 0.799811 0.299616 0.55815
878 2 0.849836 0.350185 0.526975
888 2 0.150305 0.450546 0.527227
882 1 0.100271 0.400571 0.559117
896 2 0.349759 0.449951 0.526998
890 1 0.300065 0.399696 0.558752
898 1 0.499346 0.39989 0.558897
904 2 0.549793 0.44965 0.527075
906 1 0.698771 0.400277 0.55842
912 2 0.75114 0.449343 0.527088
914 1 0.900292 0.399377 0.558382
920 2 0.949613 0.450243 0.526687
892 1 0.201313 0.500491 0.558398
900 1 0.399097 0.500761 0.55874
908 1 0.600491 0.500089 0.558621
916 1 0.800955 0.499819 0.558751
884 1 1.00029 0.499625 0.558801
886 2 0.0499663 0.54996 0.52695
922 1 0.0996509 0.601063 0.558585
894 2 0.250413 0.550362 0.526631
930 1 0.30053 0.59876 0.558877
902 2 0.450464 0.548982 0.526988
938 1 0.499274 0.599925 0.558721
910 2 0.650349 0.550479 0.526778
946 1 0.699963 0.600241 0.558749
918 2 0.850432 0.549865 0.526914
954 1 0.900192 0.599935 0.558848
928 2 0.149812 0.650575 0.526188
932 1 0.200395 0.699861 0.558287
936 2 0.350324 0.649026 0.526836
940 1 0.400013 0.700698 0.558542
944 2 0.549604 0.65097 0.527496
948 1 0.600788 0.701079 0.558865
952 2 0.750089 0.649159 0.526634
956 1 0.799169 0.699949 0.558325
960 2 0.949961 0.649471 0.526754
924 1 0.999152 0.700136 0.558745
926 2 0.0495426 0.749512 0.526715
962 1 0.0997645 0.799687 0.558331
934 2 0.250383 0.75104 0.527018
970 1 0.300305 0.800505 0.558942
942 2 0.450553 0.750637 0.526689
978 1 0.500618 0.799345 0.559037
950 2 0.649565 0.750547 0.526617
986 1 0.700033 0.799807 0.558425
958 2 0.84926 0.750347 0.526935
994 1 0.899148 0.800754 0.558448
964 1 0.000677056 0.900137 0.558586
968 2 0.149747 0.850571 0.527069
972 1 0.199803 0.901261 0.558639
976 2 0.349865 0.850164 0.527221
980 1 0.400773 0.899392 0.558726
984 2 0.549904 0.850145 0.527158
988 1 0.600783 0.901366 0.558274
992 2 0.749881 0.850206 0.526826
996 1 0.800459 0.899747 0.558388
1000 2 0.949673 0.850762 0.526919
966 2 0.0502004 0.951038 0.526971
802 1 0.100462 1.00042 0.558857
974 2 0.250125 0.950574 0.526555
810 1 0.300521 0.999518 0.558479
982 2 0.450526 0.950544 0.527095
818 1 0.500317 1.00067 0.559193
990 2 0.650952 0.950835 0.526425
826 1 0.699453 1.00066 0.558803
998 2 0.850662 0.949912 0.526747
834 1 0.899852 1.00072 0.558611
807 2 0.0496683 0.0490066 0.590624
815 2 0.250911 0.0499837 0.590099
823 2 0.449367 0.0498197 0.590914
831 2 0.649693 0.0502883 0.590874
839 2 0.849338 0.0510296 0.590346
805 2 0.149905 0.149608 0.590789
813 2 0.349742 0.150637 0.590151
821 2 0.549849 0.149482 0.590346
829 2 0.748607 0.149819 0.590058
837 2 0.950075 0.149894 0.590563
847 2 0.0497785 0.250182 0.590559
855 2 0.25074 0.250037 0.590759
863 2 0.450427 0.250689 0.590962
871 2 0.650515 0.250188 0.590495
879 2 0.849856 0.249444 0.589874
845 2 0.150529 0.349561 0.590316
853 2 0.350302 0.350029 0.590262
861 2 0.551236 0.351232 0.590732
869 2 0.749472 0.349875 0.589961
877 2 0.9498 0.349867 0.590585