ITEM: TIMESTEP
500
ITEM: NUMBER OF ATOMS
1250
ITEM: BOX BOUNDS pp pp pp
0.0000000000000000e+00 3.9000000000000000e+01
0.0000000000000000e+00 3.9000000000000000e+01
-1.5600000000000000e+01 6.2399999999999999e+01
ITEM: ATOMS id type xs ys zs
1 1 0 0 0
8 2 0.15 0.05 0.025
9 1 0.2 0 0
16 2 0.35 0.05 0.025
17 1 0.4 0 0
24 2 0.55 0.05 0.025
25 1 0.6 0 0
32 2 0.75 0.05 0.025
33 1 0.8 0 0
40 2 0.95 0.05 0.025
3 1 0.1 0.1 0
11 1 0.3 0.1 0
19 1 0.5 0.1 0
27 1 0.7 0.1 0
35 1 0.9 0.1 0
6 2 0.05 0.15 0.025
41 1 0 0.2 0
49 1 0.2 0.2 0
14 2 0.25 0.15 0.025
57 1 0.4 0.2 0
22 2 0.45 0.15 0.025
65 1 0.6 0.2 0
30 2 0.65 0.15 0.025
38 2 0.85 0.15 0.025
73 1 0.8 0.2 0
48 2 0.15 0.25 0.025
56 2 0.35 0.25 0.025
64 2 0.55 0.25 0.025
72 2 0.75 0.25 0.025
80 2 0.95 0.25 0.025
46 2 0.05 0.35 0.025
43 1 0.1 0.3 0
54 2 0.25 0.35 0.025
51 1 0.3 0.3 0
62 2 0.45 0.35 0.025
59 1 0.5 0.3 0
67 1 0.7 0.3 0
70 2 0.65 0.35 0.025
78 2 0.85 0.35 0.025
75 1 0.9 0.3 0
81 1 0 0.4 0
89 1 0.2 0.4 0
97 1 0.4 0.4 0
105 1 0.6 0.4 0
113 1 0.8 0.4 0
88 2 0.15 0.45 0.025
96 2 0.35 0.45 0.025
104 2 0.55 0.45 0.025
112 2 0.75 0.45 0.025
120 2 0.95 0.45 0.025
86 2 0.05 0.55 0.025
83 1 0.1 0.5 0
94 2 0.25 0.55 0.025
91 1 0.3 0.5 0
102 2 0.45 0.55 0.025
99 1 0.5 0.5 0
107 1 0.7 0.5 0
110 2 0.65 0.55 0.025
118 2 0.85 0.55 0.025
115 1 0.9 0.5 0
121 1 0 0.6 0
129 1 0.2 0.6 0
137 1 0.4 0.6 0
145 1 0.6 0.6 0
153 1 0.8 0.6 0
123 1 0.1 0.7 0
128 2 0.15 0.65 0.025
131 1 0.3 0.7 0
136 2 0.35 0.65 0.025
139 1 0.5 0.7 0
144 2 0.55 0.65 0.025
147 1 0.7 0.7 0
152 2 0.75 0.65 0.025
155 1 0.9 0.7 0
160 2 0.95 0.65 0.025
126 2 0.05 0.75 0.025
134 2 0.25 0.75 0.025
142 2 0.45 0.75 0.025
150 2 0.65 0.75 0.025
158 2 0.85 0.75 0.025
161 1 0 0.8 0
168 2 0.15 0.85 0.025
169 1 0.2 0.8 0
176 2 0.35 0.85 0.025
177 1 0.4 0.8 0
184 2 0.55 0.85 0.025
185 1 0.6 0.8 0
192 2 0.75 0.85 0.025
193 1 0.8 0.8 0
200 2 0.95 0.85 0.025
163 1 0.1 0.9 0
171 1 0.3 0.9 0
179 1 0.5 0.9 0
187 1 0.7 0.9 0
195 1 0.9 0.9 0
166 2 0.05 0.95 0.025
174 2 0.25 0.95 0.025
182 2 0.45 0.95 0.025
190 2 0.65 0.95 0.025
198 2 0.85 0.95 0.025
7 2 0.0500585 0.0503116 0.0673434
2 1 0.1 0 0.05
15 2 0.249808 0.0500095 0.0674792
10 1 0.3 0 0.05
23 2 0.450189 0.0501207 0.0674994
18 1 0.5 0 0.05
26 1 0.7 0 0.05
31 2 0.650106 0.0499893 0.0673533
39 2 0.850254 0.0500895 0.0673652
34 1 0.9 0 0.05
4 1 0 0.1 0.05
12 1 0.2 0.1 0.05
20 1 0.4 0.1 0.05
28 1 0.6 0.1 0.05
36 1 0.8 0.1 0.05
42 1 0.1 0.2 0.05
5 2 0.149817 0.150089 0.0671955
50 1 0.3 0.2 0.05
13 2 0.349895 0.150165 0.0675074
58 1 0.5 0.2 0.05
21 2 0.550146 0.150232 0.0671947
66 1 0.7 0.2 0.05
29 2 0.750304 0.149837 0.0672251
74 1 0.9 0.2 0.05
37 2 0.95016 0.149737 0.0674957
47 2 0.0497322 0.250217 0.0671315
55 2 0.249884 0.250217 0.0674968
63 2 0.44991 0.249812 0.0673886
71 2 0.650308 0.249689 0.0673082
79 2 0.849803 0.2503 0.067272
44 1 0 0.3 0.05
52 1 0.2 0.3 0.05
45 2 0.149619 0.350238 0.0672346
53 2 0.349853 0.349981 0.0672153
60 1 0.4 0.3 0.05
61 2 0.55032 0.349967 0.0673357
68 1 0.6 0.3 0.05
69 2 0.750119 0.349688 0.0673083
76 1 0.8 0.3 0.05
77 2 0.949974 0.350178 0.0674395
82 1 0.1 0.4 0.05
90 1 0.3 0.4 0.05
98 1 0.5 0.4 0.05
106 1 0.7 0.4 0.05
114 1 0.9 0.4 0.05
87 2 0.0497429 0.449748 0.0672915
95 2 0.250211 0.450114 0.0674224
103 2 0.44991 0.450057 0.067179
111 2 0.650109 0.449631 0.0673556
119 2 0.850047 0.449584 0.067218
84 1 0 0.5 0.05
92 1 0.2 0.5 0.05
85 2 0.149676 0.549916 0.0673083
93 2 0.349925 0.550244 0.0674168
100 1 0.4 0.5 0.05
101 2 0.550146 0.550368 0.067492
108 1 0.6 0.5 0.05
109 2 0.750279 0.549726 0.0674578
116 1 0.8 0.5 0.05
117 2 0.950014 0.55031 0.0672631
122 1 0.1 0.6 0.05
130 1 0.3 0.6 0.05
138 1 0.5 0.6 0.05
146 1 0.7 0.6 0.05
154 1 0.9 0.6 0.05
124 1 0 0.7 0.05
127 2 0.0503468 0.650256 0.0671728
132 1 0.2 0.7 0.05
135 2 0.249781 0.649867 0.0674183
140 1 0.4 0.7 0.05
143 2 0.450068 0.650318 0.0672242
148 1 0.6 0.7 0.05
151 2 0.649768 0.650063 0.0671886
156 1 0.8 0.7 0.05
159 2 0.850052 0.650174 0.0674585
125 2 0.150433 0.750099 0.0675052
133 2 0.350064 0.749803 0.0672427
141 2 0.54978 0.750223 0.0674909
149 2 0.749903 0.750047 0.0673057
157 2 0.950029 0.750246 0.0673315
167 2 0.0499617 0.850317 0.0671801
162 1 0.1 0.8 0.05
175 2 0.250304 0.850031 0.0674448
170 1 0.3 0.8 0.05
183 2 0.450219 0.850302 0.0672767
178 1 0.5 0.8 0.05
186 1 0.7 0.8 0.05
191 2 0.650207 0.849654 0.0674878
199 2 0.85025 0.84993 0.0674534
194 1 0.9 0.8 0.05
164 1 0 0.9 0.05
172 1 0.2 0.9 0.05
180 1 0.4 0.9 0.05
188 1 0.6 0.9 0.05
196 1 0.8 0.9 0.05
165 2 0.149608 0.949814 0.0674972
173 2 0.349963 0.94993 0.0674611
181 2 0.549621 0.949816 0.0672907
189 2 0.750283 0.95008 0.0672022
197 2 0.949736 0.949841 0.0672627
208 2 0.149728 0.0502309 0.101861
216 2 0.34992 0.0502987 0.101916
224 2 0.549655 0.0502579 0.102212
225 1 0.599566 -0.000209367 0.0846432
232 2 0.750084 0.0501495 0.102006
240 2 0.950016 0.050239 0.101899
203 1 0.10026 0.100129 0.0844988
211 1 0.29999 0.100163 0.084703
219 1 0.500264 0.100406 0.0844773
227 1 0.700152 0.100222 0.0845029
235 1 0.900139 0.100058 0.0845485
241 1 6.94418e-05 0.200176 0.0846673
206 2 0.0502585 0.150093 0.101931
249 1 0.200253 0.199722 0.0846361
214 2 0.250057 0.150193 0.102055
257 1 0.400117 0.200029 0.0848335
222 2 0.449867 0.149787 0.101851
265 1 0.599895 0.200258 0.0847316
230 2 0.650101 0.149935 0.101873
273 1 0.799827 0.200202 0.0845205
238 2 0.849633 0.149836 0.102181
248 2 0.149876 0.250189 0.101896
256 2 0.350076 0.249986 0.102022
264 2 0.54997 0.250027 0.102052
272 2 0.750167 0.249723 0.102018
280 2 0.949928 0.249649 0.101905
246 2 0.0503305 0.349728 0.101922
243 1 0.0998151 0.299657 0.0847438
254 2 0.249816 0.350105 0.10187
251 1 0.299813 0.299923 0.0845026
259 1 0.500009 0.299747 0.0845928
262 2 0.449833 0.350005 0.10218
267 1 0.700297 0.299853 0.0847191
270 2 0.650271 0.350176 0.102069
278 2 0.849907 0.35029 0.101915
275 1 0.900137 0.300199 0.0847676
289 1 0.200019 0.399961 0.0847096
297 1 0.400127 0.400046 0.0845008
305 1 0.600141 0.399629 0.084904
313 1 0.800085 0.39994 0.0848139
281 1 0.999992 0.399674 0.0846153
283 1 0.100024 0.500116 0.0845041
288 2 0.150196 0.449789 0.102153
291 1 0.299703 0.500016 0.0847526
296 2 0.34995 0.449985 0.102239
299 1 0.500272 0.500276 0.0848324
304 2 0.550018 0.449898 0.101985
307 1 0.700155 0.500174 0.0846333
312 2 0.750198 0.450018 0.101951
320 2 0.949852 0.450118 0.102125
286 2 0.0499797 0.549865 0.101865
294 2 0.249701 0.549986 0.10186
302 2 0.450254 0.55029 0.10214
310 2 0.649935 0.550034 0.101927
318 2 0.849824 0.550146 0.101796
315 1 0.899808 0.499691 0.0847085
329 1 0.199664 0.599805 0.0847248
337 1 0.400255 0.600286 0.0848925
345 1 0.600391 0.599719 0.0846824
353 1 0.799672 0.599971 0.0845982
321 1 0.999895 0.60045 0.0847208
323 1 0.100066 0.700052 0.084529
328 2 0.150087 0.650268 0.101988
331 1 0.300143 0.699915 0.0844883
336 2 0.349876 0.650201 0.102208
339 1 0.499707 0.700371 0.0848708
344 2 0.549939 0.649681 0.10191
347 1 0.700259 0.699825 0.0848424
352 2 0.7499 0.649923 0.102
355 1 0.899934 0.700088 0.0847318
360 2 0.949576 0.650134 0.101995
326 2 0.0497632 0.749864 0.101861
334 2 0.250274 0.750203 0.102076
342 2 0.450107 0.750204 0.102284
350 2 0.65036 0.749975 0.102219
358 2 0.850271 0.750091 0.10187
369 1 0.200465 0.80035 0.0846631
368 2 0.150085 0.849914 0.101876
376 2 0.349741 0.850172 0.102193
377 1 0.39977 0.800251 0.0846997
384 2 0.550398 0.850384 0.101966
385 1 0.599926 0.800109 0.0848802
392 2 0.750102 0.850295 0.102228
393 1 0.799755 0.799993 0.0847809
361 1 1.0002 0.800135 0.0846725
400 2 0.950221 0.84975 0.102207
363 1 0.0998062 0.899648 0.0845889
371 1 0.300021 0.900003 0.0849135
379 1 0.499986 0.899714 0.0847856
387 1 0.700286 0.900066 0.0845891
395 1 0.89984 0.899719 0.0847114
201 1 6.00479e-05 1.00021 0.0847515
366 2 0.0500917 0.950305 0.101953
209 1 0.199917 0.999738 0.0846602
374 2 0.249648 0.949675 0.102023
217 1 0.399694 1.00037 0.0847483
382 2 0.450045 0.950353 0.101819
390 2 0.649675 0.949896 0.101907
233 1 0.80031 0.999913 0.0844878
398 2 0.850222 0.950109 0.101984
207 2 0.0500712 0.0499952 0.136593
215 2 0.250023 0.049783 0.136601
223 2 0.450272 0.049644 0.136632
226 1 0.699856 -0.000216604 0.119213
231 2 0.649879 0.0501137 0.136724
239 2 0.850032 0.0496627 0.136449
212 1 0.199918 0.100178 0.11953
220 1 0.399963 0.0996195 0.119201
228 1 0.599787 0.10021 0.119394
236 1 0.799857 0.0998298 0.119291
204 1 0.999771 0.10005 0.119329
242 1 0.100409 0.199904 0.119393
205 2 0.150245 0.150093 0.136769
250 1 0.300186 0.199895 0.11958
213 2 0.350214 0.14982 0.136878
258 1 0.499671 0.199988 0.119355
221 2 0.549605 0.150189 0.136823
266 1 0.700104 0.199979 0.119145
229 2 0.749988 0.14981 0.136568
274 1 0.899599 0.199819 0.119442
237 2 0.94964 0.149626 0.13677
247 2 0.0502852 0.250028 0.136767
255 2 0.249869 0.249754 0.136794
263 2 0.449829 0.249902 0.136638
271 2 0.650288 0.249701 0.136729
279 2 0.849698 0.250084 0.13655
244 1 1.91896e-06 0.299772 0.119189
252 1 0.200007 0.300318 0.119284
245 2 0.149802 0.350219 0.136574
253 2 0.350352 0.349705 0.136881
260 1 0.400313 0.299651 0.119542
261 2 0.550057 0.349861 0.136638
268 1 0.600052 0.300224 0.119405
269 2 0.750075 0.350001 0.136533
276 1 0.800057 0.300221 0.119396
277 2 0.950068 0.349945 0.136644
282 1 0.100121 0.399752 0.119485
290 1 0.299753 0.399601 0.119507
298 1 0.500097 0.399817 0.11951
306 1 0.7001 0.399761 0.119306
314 1 0.899781 0.399924 0.119397
287 2 0.050097 0.45001 0.136706
292 1 0.2002 0.499721 0.11929
295 2 0.249652 0.450242 0.136909
300 1 0.400228 0.500386 0.119326
303 2 0.450185 0.450086 0.136665
308 1 0.600063 0.499891 0.119303
311 2 0.649784 0.449907 0.136572
316 1 0.799944 0.500232 0.119247
319 2 0.8498 0.450047 0.136769
285 2 0.14978 0.549867 0.136896
293 2 0.35031 0.550331 0.136597
301 2 0.54998 0.54993 0.136785
309 2 0.7499 0.549832 0.136879
284 1 1.00001 0.499827 0.119308
317 2 0.950342 0.549635 0.136812
322 1 0.100241 0.600077 0.119517
330 1 0.300078 0.600265 0.119327
338 1 0.500304 0.599787 0.1192
346 1 0.700054 0.600293 0.119279
354 1 0.89974 0.599506 0.119548
324 1 0.000338594 0.699715 0.119286
327 2 0.0500356 0.650011 0.136537
332 1 0.200314 0.700063 0.119433
335 2 0.250144 0.64964 0.136898
340 1 0.39983 0.699672 0.119431
343 2 0.450282 0.649777 0.136509
348 1 0.599963 0.699705 0.119374
351 2 0.649722 0.650179 0.13679
356 1 0.800299 0.700139 0.119551
359 2 0.850202 0.649761 0.136714
325 2 0.150178 0.750219 0.136547
333 2 0.350083 0.749594 0.136708
341 2 0.55011 0.749792 0.136792
349 2 0.750313 0.750204 0.13692
357 2 0.950302 0.749726 0.13649
367 2 0.0503063 0.849733 0.136586
362 1 0.100142 0.800108 0.11934
375 2 0.249644 0.849695 0.136561
370 1 0.299959 0.799873 0.11947
378 1 0.500252 0.800179 0.119563
383 2 0.449871 0.849963 0.136681
386 1 0.700458 0.799978 0.119556
391 2 0.650443 0.850098 0.136842
399 2 0.850474 0.849746 0.136947
394 1 0.899864 0.799646 0.119415
372 1 0.199622 0.899928 0.119524
380 1 0.400351 0.900058 0.119398
388 1 0.600442 0.899997 0.119378
396 1 0.800228 0.899811 0.119605
364 1 1.00029 0.899984 0.119304
202 1 0.100121 1.00009 0.119479
365 2 0.150052 0.949951 0.136639
210 1 0.299701 1.00024 0.119351
373 2 0.349703 0.950125 0.136691
218 1 0.499845 0.999975 0.119302
381 2 0.54989 0.949786 0.136547
389 2 0.749661 0.950159 0.136836
234 1 0.900421 0.999659 0.119215
397 2 0.949774 0.94963 0.136746
409 1 0.199839 1.72094e-05 0.154198
408 2 0.150024 0.0502333 0.171581
416 2 0.349769 0.0501541 0.171501
424 2 0.5503 0.0496962 0.171392
432 2 0.750029 0.0503611 0.171317
433 1 0.799656 0.000241993 0.153916
440 2 0.949643 0.0496234 0.171556
403 1 0.100059 0.100128 0.154221
411 1 0.299558 0.0998666 0.154223
419 1 0.500128 0.0998734 0.154122
427 1 0.699607 0.100319 0.153941
435 1 0.899722 0.0996606 0.154053
406 2 0.0499462 0.14984 0.171378
449 1 0.199963 0.19994 0.154202
414 2 0.24987 0.150353 0.171469
457 1 0.399916 0.200373 0.154262
422 2 0.449749 0.14988 0.171296
465 1 0.599576 0.20036 0.154203
430 2 0.649727 0.150427 0.171243
473 1 0.79999 0.200089 0.153896
438 2 0.850275 0.15005 0.171541
441 1 0.999742 0.199627 0.153946
448 2 0.150087 0.249945 0.171212
456 2 0.349964 0.249957 0.171584
464 2 0.549879 0.250066 0.171457
472 2 0.750182 0.249951 0.171269
480 2 0.95033 0.250234 0.171321
446 2 0.0501967 0.3497 0.171255
443 1 0.0999247 0.300152 0.154081
454 2 0.249837 0.349906 0.171228
451 1 0.300044 0.29959 0.154092
462 2 0.449997 0.350315 0.171436
459 1 0.499924 0.300014 0.15388
467 1 0.700041 0.299671 0.154112
470 2 0.650174 0.349597 0.171413
478 2 0.849911 0.350216 0.171231
475 1 0.899917 0.299715 0.154088
489 1 0.199542 0.399827 0.154212
497 1 0.399925 0.400364 0.154232
505 1 0.600014 0.399965 0.15411
513 1 0.799963 0.399925 0.153879
481 1 1.00036 0.399896 0.153926
488 2 0.14981 0.450222 0.171487
491 1 0.300074 0.500121 0.154023
496 2 0.349793 0.449992 0.171411
499 1 0.500331 0.499797 0.154175
504 2 0.5497 0.44953 0.171542
507 1 0.699644 0.500103 0.153882
512 2 0.749925 0.449862 0.171474
520 2 0.950188 0.450022 0.171192
486 2 0.0500783 0.550057 0.171419
483 1 0.0997123 0.500255 0.154216
494 2 0.249691 0.550213 0.171392
502 2 0.449738 0.550235 0.171397
510 2 0.6497 0.549725 0.171552
518 2 0.849859 0.550171 0.171562
515 1 0.899725 0.499787 0.154132
529 1 0.199966 0.599863 0.154228
537 1 0.399808 0.600012 0.153907
545 1 0.600109 0.599772 0.153853
553 1 0.799913 0.600106 0.154035
521 1 1.0004 0.59969 0.153974
523 1 0.100361 0.700293 0.15395
528 2 0.149926 0.649753 0.171335
531 1 0.299706 0.699635 0.154205
536 2 0.350151 0.649902 0.171243
539 1 0.500197 0.700345 0.15418
544 2 0.550337 0.650193 0.171303
547 1 0.699972 0.70026 0.153929
552 2 0.75024 0.650263 0.17119
555 1 0.90033 0.700107 0.153908
560 2 0.950365 0.649654 0.17138
526 2 0.0499023 0.750051 0.171378
534 2 0.249653 0.749757 0.171528
542 2 0.449696 0.750244 0.171573
550 2 0.650292 0.749661 0.17137
558 2 0.850135 0.749789 0.171238
561 1 0.000321561 0.800039 0.153843
569 1 0.199851 0.799816 0.15421
568 2 0.150069 0.8502 0.171445
576 2 0.349927 0.850007 0.17152
577 1 0.400144 0.800049 0.154028
584 2 0.550237 0.849909 0.171331
585 1 0.600205 0.80024 0.154202
592 2 0.750233 0.849953 0.17123
593 1 0.800453 0.800235 0.154191
600 2 0.95005 0.850195 0.171229
563 1 0.100337 0.899709 0.154041
571 1 0.299677 0.899744 0.153941
579 1 0.500095 0.89971 0.153878
587 1 0.700093 0.900043 0.154255
595 1 0.900233 0.90034 0.154249
566 2 0.0499787 0.949734 0.171406
574 2 0.250342 0.949785 0.171297
417 1 0.399796 0.999806 0.154211
582 2 0.450172 0.94967 0.171208
425 1 0.599804 1.00005 0.153895
590 2 0.649903 0.949692 0.171346
598 2 0.849826 0.950189 0.171234
401 1 0.999768 0.999877 0.154138
407 2 0.0499021 0.0502791 0.206109
415 2 0.24965 0.0498679 0.206198
423 2 0.450084 0.0500961 0.206168
431 2 0.649844 0.0499621 0.206204
439 2 0.850211 0.0498537 0.206146
412 1 0.200232 0.100184 0.18889
420 1 0.400217 0.100238 0.188739
428 1 0.600109 0.100369 0.188578
436 1 0.79998 0.0999787 0.188813
404 1 0.999596 0.100141 0.18858
442 1 0.0997276 0.200284 0.188857
405 2 0.149996 0.14999 0.205961
413 2 0.35015 0.150109 0.206033
450 1 0.300174 0.200129 0.188723
458 1 0.499714 0.200092 0.188732
421 2 0.549658 0.150062 0.205941
466 1 0.700051 0.199626 0.188687
429 2 0.750312 0.149805 0.206142
474 1 0.90012 0.199896 0.188921
437 2 0.950065 0.150048 0.206274
447 2 0.0499715 0.249893 0.206128
455 2 0.250347 0.249904 0.205923
463 2 0.449886 0.249692 0.206131
471 2 0.649718 0.249752 0.205946
479 2 0.850108 0.250173 0.205944
445 2 0.149937 0.350257 0.205898
452 1 0.200099 0.300201 0.188896
453 2 0.349988 0.350146 0.206105
460 1 0.400378 0.299879 0.18861
461 2 0.549903 0.350264 0.205925
468 1 0.599666 0.300081 0.188812
469 2 0.750037 0.350317 0.205985
476 1 0.800016 0.299796 0.188763
444 1 0.99999 0.300172 0.18864
477 2 0.949909 0.349736 0.206118
482 1 0.100106 0.399893 0.188538
490 1 0.30001 0.400154 0.188629
498 1 0.499833 0.400255 0.1889
506 1 0.699618 0.399782 0.188701
514 1 0.899898 0.400158 0.188698
487 2 0.0499023 0.449784 0.206249
492 1 0.199811 0.499817 0.188557
495 2 0.249609 0.449799 0.205837
500 1 0.399839 0.499966 0.188696
503 2 0.450187 0.450208 0.205869
508 1 0.599896 0.499507 0.188544
511 2 0.650248 0.450334 0.206164
519 2 0.850332 0.450001 0.206218
516 1 0.800432 0.499606 0.188604
485 2 0.149829 0.550101 0.206203
493 2 0.350071 0.550104 0.206113
501 2 0.550133 0.549653 0.206197
509 2 0.750302 0.549805 0.205946
484 1 1.00003 0.499846 0.188831
517 2 0.949906 0.550274 0.20619
522 1 0.100142 0.600037 0.188883
530 1 0.299881 0.599989 0.188726
538 1 0.49994 0.599754 0.188801
546 1 0.700304 0.599996 0.188601
554 1 0.90018 0.600293 0.188757
527 2 0.0502632 0.649764 0.206207
532 1 0.19956 0.699659 0.188718
535 2 0.249693 0.650156 0.206208
540 1 0.399957 0.699965 0.188745
543 2 0.450412 0.650168 0.206076
548 1 0.599966 0.699822 0.188811
551 2 0.650349 0.649833 0.206054
556 1 0.799648 0.700365 0.188765
559 2 0.849852 0.650051 0.205872
524 1 1.00008 0.700039 0.18881
525 2 0.149747 0.74986 0.206261
533 2 0.350156 0.750414 0.205876
541 2 0.549859 0.750072 0.206179
549 2 0.749833 0.749938 0.206092
557 2 0.949707 0.750346 0.20612
567 2 0.0501826 0.850322 0.206148
562 1 0.100069 0.799871 0.188827
575 2 0.24995 0.849807 0.205963
570 1 0.299778 0.799708 0.188705
583 2 0.450487 0.849794 0.205826
578 1 0.500228 0.799826 0.188514
586 1 0.700178 0.800003 0.188658
591 2 0.64996 0.849875 0.20604
599 2 0.849824 0.850115 0.20594
594 1 0.900105 0.799845 0.188604
572 1 0.199957 0.899734 0.188726
580 1 0.400414 0.900121 0.1886
588 1 0.600072 0.900098 0.188754
596 1 0.800334 0.899902 0.188491
564 1 1.00014 0.89995 0.188709
402 1 0.0997719 0.99971 0.188623
565 2 0.150293 0.95002 0.206166
410 1 0.300131 1.00025 0.188802
573 2 0.3502 0.950066 0.206085
418 1 0.50028 0.999645 0.188754
581 2 0.550084 0.949832 0.206239
426 1 0.699672 1.00005 0.188543
589 2 0.749757 0.949655 0.205925
434 1 0.899632 0.999633 0.188619
597 2 0.950268 0.950327 0.206112
608 2 0.149714 0.0503454 0.240901
616 2 0.350061 0.049997 0.240494
624 2 0.549801 0.0498009 0.240836
632 2 0.750047 0.0498473 0.240698
601 1 0.999985 0.000270931 0.223525
640 2 0.950172 0.049799 0.240914
603 1 0.10027 0.100312 0.223404
611 1 0.29967 0.100039 0.223531
619 1 0.499691 0.0996891 0.223249
627 1 0.699702 0.0996447 0.223505
635 1 0.900362 0.100134 0.223529
606 2 0.0498303 0.149747 0.240833
649 1 0.200053 0.200197 0.223261
614 2 0.250207 0.150256 0.240625
657 1 0.40037 0.200178 0.22328
622 2 0.45021 0.150144 0.24088
665 1 0.599723 0.200336 0.223241
630 2 0.649583 0.149935 0.240538
673 1 0.800414 0.200243 0.223528
638 2 0.850013 0.149827 0.240801
641 1 0.999904 0.200013 0.223578
648 2 0.149724 0.249787 0.240939
656 2 0.350081 0.249736 0.240791
664 2 0.54967 0.250104 0.240901
672 2 0.749972 0.249736 0.240821
680 2 0.950311 0.250227 0.240766
646 2 0.0500934 0.349965 0.240874
643 1 0.100388 0.300024 0.223286
654 2 0.249801 0.349854 0.240516
651 1 0.299907 0.299917 0.223374
659 1 0.499911 0.299876 0.223229
662 2 0.449769 0.349852 0.240882
667 1 0.700172 0.299875 0.223408
670 2 0.650131 0.349646 0.240666
678 2 0.85004 0.349972 0.240596
675 1 0.900044 0.299609 0.223504
689 1 0.199934 0.399719 0.223192
697 1 0.40014 0.400085 0.223245
705 1 0.600353 0.399853 0.223529
713 1 0.800146 0.400376 0.223329
681 1 1.00013 0.400006 0.223596
683 1 0.0999717 0.499711 0.223523
688 2 0.149824 0.449979 0.24087
691 1 0.29982 0.499857 0.223312
696 2 0.350344 0.450018 0.24057
699 1 0.499898 0.499835 0.223523
704 2 0.550198 0.449677 0.240724
707 1 0.700206 0.500036 0.223387
712 2 0.749731 0.449828 0.240654
715 1 0.900258 0.500019 0.223347
720 2 0.949919 0.449869 0.240585
686 2 0.0496537 0.549732 0.240893
694 2 0.250178 0.54999 0.240657
702 2 0.450207 0.550251 0.240549
710 2 0.650113 0.550041 0.240719
718 2 0.850072 0.549831 0.240633
729 1 0.199761 0.600185 0.223343
737 1 0.400081 0.600006 0.223174
745 1 0.600028 0.600317 0.223458
753 1 0.800228 0.600179 0.223422
721 1 1.00032 0.59998 0.223292
723 1 0.0998614 0.69997 0.223515
728 2 0.149832 0.649944 0.240843
731 1 0.300343 0.700028 0.223277
736 2 0.350224 0.650159 0.24059
739 1 0.500023 0.700407 0.223468
744 2 0.54976 0.650193 0.240645
747 1 0.699703 0.70017 0.223204
752 2 0.749906 0.650267 0.240686
755 1 0.899959 0.699642 0.223427
760 2 0.950085 0.650078 0.240645
726 2 0.0498922 0.750246 0.240666
734 2 0.249767 0.74979 0.240891
742 2 0.449814 0.749773 0.240793
750 2 0.649625 0.749817 0.240767
758 2 0.849895 0.749916 0.240662
769 1 0.19991 0.799734 0.223377
768 2 0.150094 0.850165 0.240608
776 2 0.350139 0.850173 0.240799
777 1 0.400293 0.80031 0.223355
784 2 0.550294 0.850192 0.240943
785 1 0.599928 0.800118 0.22341
792 2 0.750095 0.849791 0.240795
793 1 0.800064 0.799984 0.223291
761 1 1.00019 0.800434 0.223583
800 2 0.94964 0.850249 0.240751
763 1 0.100239 0.900324 0.223545
771 1 0.300112 0.900309 0.223274
779 1 0.500383 0.899843 0.223309
787 1 0.699962 0.899621 0.223501
795 1 0.899686 0.899747 0.223223
766 2 0.0501691 0.95 0.240897
609 1 0.199673 1.00001 0.223606
774 2 0.249796 0.949929 0.240928
617 1 0.400065 0.999631 0.223222
782 2 0.450384 0.949946 0.240751
625 1 0.599934 1.00019 0.223327
790 2 0.649605 0.949745 0.240782
633 1 0.799809 0.99961 0.223467
798 2 0.850133 0.949827 0.240778
607 2 0.0502007 0.0498532 0.275353
615 2 0.249977 0.0498317 0.275492
623 2 0.449745 0.0498045 0.275348
631 2 0.650192 0.0502839 0.275552
639 2 0.849848 0.0504331 0.275576
634 1 0.899708 0.000326758 0.258274
612 1 0.200094 0.0997924 0.25818
620 1 0.399825 0.100119 0.258038
628 1 0.600063 0.0996625 0.25822
636 1 0.800149 0.0998643 0.25798
604 1 0.999873 0.0999689 0.257919
642 1 0.0997238 0.199825 0.258101
605 2 0.149651 0.149763 0.275239
613 2 0.349797 0.150052 0.275392
650 1 0.299682 0.200016 0.258206
658 1 0.499947 0.200137 0.257917
621 2 0.549624 0.150054 0.27534
666 1 0.700045 0.200085 0.258123
629 2 0.749967 0.149759 0.275474
674 1 0.900354 0.200056 0.25786
637 2 0.949728 0.15026 0.275417
647 2 0.0499172 0.249832 0.275283
655 2 0.249902 0.250027 0.275438
663 2 0.450206 0.249728 0.275217
671 2 0.649943 0.250093 0.275527
679 2 0.850075 0.24993 0.275224
645 2 0.150129 0.349849 0.275309
652 1 0.200222 0.300054 0.25787
653 2 0.349693 0.350147 0.275431
660 1 0.399726 0.300097 0.258025
661 2 0.550197 0.350385 0.275272
668 1 0.599666 0.300231 0.257975
669 2 0.749783 0.349713 0.275572
676 1 0.79965 0.300253 0.257986
644 1 1.00029 0.300006 0.257983
677 2 0.950078 0.350172 0.275319
682 1 0.100018 0.400185 0.2583
690 1 0.300108 0.400234 0.25806
698 1 0.499869 0.399892 0.258189
706 1 0.699809 0.399954 0.25809
714 1 0.899878 0.399954 0.257994
687 2 0.0498282 0.450335 0.275258
692 1 0.200227 0.500011 0.258175
695 2 0.250349 0.449954 0.275444
700 1 0.40024 0.50027 0.257939
703 2 0.450204 0.450184 0.275603
708 1 0.600178 0.500182 0.258239
711 2 0.64989 0.450348 0.27544
719 2 0.850206 0.450115 0.275595
716 1 0.800191 0.499741 0.258126
684 1 0.999535 0.500002 0.258104
685 2 0.150244 0.549796 0.275261
693 2 0.350137 0.54968 0.275267
701 2 0.549842 0.550098 0.275565
709 2 0.749858 0.549791 0.27543
717 2 0.950055 0.55008 0.275536
722 1 0.0995914 0.599996 0.258178
730 1 0.300002 0.599753 0.25805
738 1 0.499768 0.60024 0.257881
746 1 0.700148 0.600368 0.258187
754 1 0.900036 0.599674 0.258164
727 2 0.0496467 0.650388 0.275323
732 1 0.200035 0.699993 0.258156
735 2 0.250042 0.650059 0.275262
740 1 0.400216 0.700042 0.258039
743 2 0.450208 0.65024 0.275425
748 1 0.600087 0.700066 0.258198
751 2 0.649694 0.649973 0.275649
756 1 0.799726 0.700202 0.257964
759 2 0.849882 0.649981 0.275249
724 1 0.999654 0.700164 0.257995
725 2 0.150098 0.749928 0.275486
733 2 0.350196 0.749824 0.275576
741 2 0.550114 0.750082 0.275594
749 2 0.749616 0.749886 0.275506
757 2 0.949631 0.750051 0.275469
767 2 0.0498879 0.849614 0.275303
762 1 0.100301 0.799803 0.25823
775 2 0.249798 0.850387 0.275295
770 1 0.300069 0.800003 0.257958
783 2 0.450256 0.849604 0.27535
778 1 0.500315 0.799566 0.257891
786 1 0.699738 0.799749 0.257975
791 2 0.650093 0.850198 0.275454
799 2 0.849567 0.850229 0.275326
794 1 0.899548 0.800031 0.258069
772 1 0.199604 0.900156 0.258105
780 1 0.399972 0.89977 0.258269
788 1 0.599758 0.900338 0.258277
796 1 0.800077 0.900311 0.257857
764 1 0.999888 0.899963 0.258181
602 1 0.0998546 0.999847 0.257912
765 2 0.150003 0.949683 0.275382
610 1 0.300019 1.0001 0.257939
773 2 0.349626 0.949731 0.275309
618 1 0.500318 1.00017 0.257966
781 2 0.550235 0.950152 0.275337
626 1 0.699959 0.999877 0.258063
789 2 0.74992 0.94974 0.275309
797 2 0.950144 0.950241 0.275531
808 2 0.149937 0.0498871 0.310101
816 2 0.349845 0.0500267 0.309962
824 2 0.549913 0.0497895 0.309981
832 2 0.749646 0.0497444 0.30999
840 2 0.950019 0.0500119 0.309925
803 1 0.100073 0.100165 0.292723
811 1 0.300272 0.0996567 0.29252
819 1 0.499678 0.0998249 0.292694
827 1 0.700195 0.100171 0.29266
835 1 0.899929 0.100026 0.292676
806 2 0.0499399 0.149993 0.310162
849 1 0.199563 0.199747 0.292914
814 2 0.249752 0.149567 0.309873
857 1 0.399939 0.200156 0.292647
822 2 0.449738 0.149733 0.310213
865 1 0.5999 0.20008 0.29265
830 2 0.649724 0.149897 0.309964
873 1 0.800118 0.199921 0.292541
838 2 0.849655 0.150034 0.309896
841 1 1.00001 0.199964 0.292868
848 2 0.149997 0.250402 0.310153
856 2 0.349756 0.250065 0.310122
864 2 0.549935 0.249772 0.30993
872 2 0.750004 0.249796 0.309873
880 2 0.950307 0.250034 0.310083
846 2 0.0502817 0.350368 0.309919
843 1 0.099831 0.300304 0.292639
854 2 0.249995 0.350308 0.31003
851 1 0.300096 0.299884 0.292937
859 1 0.50031 0.29969 0.292847
862 2 0.449661 0.349616 0.310236
867 1 0.699665 0.299771 0.292768
870 2 0.649913 0.349666 0.310049
878 2 0.849959 0.350124 0.310174
875 1 0.899886 0.300273 0.292899
889 1 0.199744 0.400324 0.292563
897 1 0.399722 0.399826 0.29257
905 1 0.600219 0.400365 0.292627
913 1 0.800286 0.399753 0.292716
881 1 1.0003 0.400112 0.292636
883 1 0.099861 0.499684 0.292884
888 2 0.150137 0.450321 0.310178
891 1 0.299877 0.500225 0.292862
896 2 0.349815 0.449928 0.3102
899 1 0.500318 0.499934 0.292917
904 2 0.5498 0.450167 0.310107
907 1 0.700068 0.499805 0.292899
912 2 0.750355 0.449842 0.310214
915 1 0.899736 0.500012 0.292607
920 2 0.949886 0.450249 0.310053
886 2 0.04993 0.550121 0.309978
894 2 0.250219 0.549977 0.309905
902 2 0.450321 0.549705 0.310166
910 2 0.650034 0.550261 0.3099
918 2 0.850149 0.54992 0.310141
929 1 0.200317 0.599952 0.292672
937 1 0.400134 0.599576 0.29276
945 1 0.599752 0.599919 0.292977
953 1 0.800199 0.599719 0.292652
921 1 1.00019 0.600069 0.292913
923 1 0.0996358 0.700149 0.292537
928 2 0.149947 0.650212 0.309865
931 1 0.299978 0.700139 0.29291
936 2 0.350016 0.649623 0.30999
939 1 0.49987 0.70013 0.292618
944 2 0.549996 0.650272 0.310271
947 1 0.699994 0.699793 0.292955
952 2 0.749892 0.649966 0.309962
955 1 0.899729 0.6998 0.292856
960 2 0.949989 0.649706 0.309963
926 2 0.0500479 0.750054 0.30997
934 2 0.25023 0.750227 0.310125
942 2 0.450296 0.750304 0.309929
950 2 0.649762 0.750266 0.309989
958 2 0.849644 0.750142 0.310178
969 1 0.199866 0.800355 0.292816
968 2 0.150058 0.850287 0.310043
976 2 0.349961 0.850111 0.31027
977 1 0.399791 0.80007 0.292921
984 2 0.549868 0.850218 0.310159
985 1 0.600093 0.799983 0.292706
992 2 0.749937 0.850111 0.31013
993 1 0.799723 0.799825 0.292794
961 1 0.999905 0.799915 0.292841
1000 2 0.94987 0.850289 0.310145
963 1 0.0996456 0.899747 0.292898
971 1 0.300121 0.899854 0.292887
979 1 0.500226 0.899827 0.292716
987 1 0.699944 0.899801 0.292735
995 1 0.899873 0.899801 0.292552
966 2 0.0501749 0.950233 0.310102
809 1 0.199637 0.999673 0.292553
974 2 0.250127 0.950192 0.310077
817 1 0.39969 0.999918 0.292803
982 2 0.450102 0.950243 0.310253
825 1 0.600013 0.999897 0.292816
990 2 0.650286 0.950371 0.309882
833 1 0.800163 1.00017 0.29263
998 2 0.850242 0.94991 0.310209
801 1 0.999746 1.00003 0.292589
807 2 0.0499445 0.0496 0.344771
815 2 0.250187 0.0497658 0.344778
823 2 0.449732 0.0499288 0.344819
831 2 0.649833 0.0502328 0.344935
839 2 0.849878 0.0501798 0.344654
812 1 0.199741 0.100046 0.327412
820 1 0.400034 0.0998051 0.327531
828 1 0.600113 0.0999362 0.327444
836 1 0.799512 0.100016 0.327184
804 1 1.00012 0.0996728 0.327487
842 1 0.100253 0.200191 0.327418
805 2 0.150081 0.149788 0.344851
813 2 0.349889 0.15015 0.344767
850 1 0.29964 0.199881 0.327252
858 1 0.500216 0.200311 0.327566
821 2 0.549911 0.149817 0.344587
866 1 0.699716 0.200226 0.32728
829 2 0.749581 0.149887 0.34479
874 1 0.900266 0.199723 0.327329
837 2 0.949983 0.150181 0.34485
847 2 0.0497595 0.250004 0.344903
855 2 0.25029 0.249976 0.344942
863 2 0.450117 0.250257 0.344872
871 2 0.650256 0.24991 0.344819
879 2 0.849863 0.250021 0.344606
845 2 0.150061 0.349729 0.344791
852 1 0.20015 0.300022 0.327397
853 2 0.350045 0.349903 0.344658
860 1 0.399721 0.299724 0.327538
861 2 0.550431 0.350409 0.344773
868 1 0.599829 0.300049 0.327509
869 2 0.749849 0.350027 0.344628
876 1 0.80023 0.299875 0.327303
844 1 0.999888 0.299838 0.327395
877 2 0.949788 0.349916 0.344779
882 1 0.10003 0.40016 0.327638
890 1 0.300043 0.39998 0.327514
898 1 0.499983 0.399853 0.32755
906 1 0.699597 0.400086 0.327317
914 1 0.899777 0.399718 0.327439
887 2 0.0496521 0.449809 0.344959
892 1 0.200222 0.500246 0.327343
895 2 0.250061 0.449792 0.34473
900 1 0.399656 0.500365 0.327586
903 2 0.449693 0.450348 0.344829
908 1 0.6002 0.499787 0.327338
911 2 0.650235 0.45031 0.344967
919 2 0.850302 0.449719 0.344575
916 1 0.800377 0.499928 0.32743
884 1 1.00011 0.499703 0.327526
885 2 0.150277 0.54987 0.344562
893 2 0.350159 0.549858 0.345008
901 2 0.549777 0.550264 0.344787
909 2 0.749846 0.549731 0.3447
917 2 0.950232 0.550209 0.344824
922 1 0.0997822 0.600362 0.327436
930 1 0.300086 0.599596 0.327504
938 1 0.499671 0.599731 0.327499
946 1 0.7 0.600106 0.327568
954 1 0.900223 0.59978 0.3274
927 2 0.049819 0.650095 0.344913
932 1 0.200189 0.69991 0.327403
935 2 0.2501 0.65006 0.344638
940 1 0.400062 0.7002 0.327534
943 2 0.450077 0.650125 0.344828
948 1 0.600293 0.70039 0.32756
951 2 0.650123 0.650251 0.344779
956 1 0.799805 0.700043 0.327265
959 2 0.849772 0.650365 0.344846
924 1 0.999748 0.699935 0.327585
925 2 0.150194 0.750165 0.344614
933 2 0.349837 0.7501 0.344942