ITEM: TIMESTEP
300
ITEM: NUMBER OF ATOMS
1250
ITEM: BOX BOUNDS pp pp pp
0.0000000000000000e+00 3.1000000000000000e+01
0.0000000000000000e+00 3.1000000000000000e+01
-1.2400000000000000e+01 4.9600000000000001e+01
ITEM: ATOMS id type xs ys zs
1 1 0 0 0
8 2 0.15 0.05 0.025
9 1 0.2 0 0
16 2 0.35 0.05 0.025
17 1 0.4 0 0
24 2 0.55 0.05 0.025
25 1 0.6 0 0
32 2 0.75 0.05 0.025
33 1 0.8 0 0
40 2 0.95 0.05 0.025
6 2 0.05 0.15 0.025
3 1 0.1 0.1 0
14 2 0.25 0.15 0.025
11 1 0.3 0.1 0
22 2 0.45 0.15 0.025
19 1 0.5 0.1 0
27 1 0.7 0.1 0
30 2 0.65 0.15 0.025
35 1 0.9 0.1 0
38 2 0.85 0.15 0.025
41 1 0 0.2 0
48 2 0.15 0.25 0.025
49 1 0.2 0.2 0
56 2 0.35 0.25 0.025
57 1 0.4 0.2 0
64 2 0.55 0.25 0.025
65 1 0.6 0.2 0
72 2 0.75 0.25 0.025
73 1 0.8 0.2 0
80 2 0.95 0.25 0.025
46 2 0.05 0.35 0.025
43 1 0.1 0.3 0
54 2 0.25 0.35 0.025
51 1 0.3 0.3 0
62 2 0.45 0.35 0.025
59 1 0.5 0.3 0
67 1 0.7 0.3 0
70 2 0.65 0.35 0.025
75 1 0.9 0.3 0
78 2 0.85 0.35 0.025
81 1 0 0.4 0
88 2 0.15 0.45 0.025
89 1 0.2 0.4 0
96 2 0.35 0.45 0.025
97 1 0.4 0.4 0
104 2 0.55 0.45 0.025
105 1 0.6 0.4 0
112 2 0.75 0.45 0.025
113 1 0.8 0.4 0
120 2 0.95 0.45 0.025
83 1 0.1 0.5 0
91 1 0.3 0.5 0
99 1 0.5 0.5 0
107 1 0.7 0.5 0
115 1 0.9 0.5 0
86 2 0.05 0.55 0.025
121 1 0 0.6 0
94 2 0.25 0.55 0.025
129 1 0.2 0.6 0
102 2 0.45 0.55 0.025
137 1 0.4 0.6 0
145 1 0.6 0.6 0
110 2 0.65 0.55 0.025
153 1 0.8 0.6 0
118 2 0.85 0.55 0.025
123 1 0.1 0.7 0
128 2 0.15 0.65 0.025
131 1 0.3 0.7 0
136 2 0.35 0.65 0.025
139 1 0.5 0.7 0
144 2 0.55 0.65 0.025
147 1 0.7 0.7 0
152 2 0.75 0.65 0.025
155 1 0.9 0.7 0
160 2 0.95 0.65 0.025
126 2 0.05 0.75 0.025
161 1 0 0.8 0
134 2 0.25 0.75 0.025
169 1 0.2 0.8 0
142 2 0.45 0.75 0.025
177 1 0.4 0.8 0
185 1 0.6 0.8 0
150 2 0.65 0.75 0.025
193 1 0.8 0.8 0
158 2 0.85 0.75 0.025
163 1 0.1 0.9 0
168 2 0.15 0.85 0.025
171 1 0.3 0.9 0
176 2 0.35 0.85 0.025
179 1 0.5 0.9 0
184 2 0.55 0.85 0.025
187 1 0.7 0.9 0
192 2 0.75 0.85 0.025
195 1 0.9 0.9 0
200 2 0.95 0.85 0.025
166 2 0.05 0.95 0.025
174 2 0.25 0.95 0.025
182 2 0.45 0.95 0.025
190 2 0.65 0.95 0.025
198 2 0.85 0.95 0.025
7 2 0.0500164 0.0501298 0.0808311
2 1 0.1 0 0.05
15 2 0.249912 0.050006 0.0808816
10 1 0.3 0 0.05
23 2 0.450079 0.0500421 0.0808917
18 1 0.5 0 0.05
26 1 0.7 0 0.05
31 2 0.650058 0.0500035 0.0808307
34 1 0.9 0 0.05
39 2 0.850102 0.0500315 0.080844
4 1 0 0.1 0.05
5 2 0.1499 0.150034 0.0807767
12 1 0.2 0.1 0.05
13 2 0.34994 0.150061 0.0808949
20 1 0.4 0.1 0.05
21 2 0.550043 0.150078 0.0807759
28 1 0.6 0.1 0.05
29 2 0.750131 0.149913 0.0807898
36 1 0.8 0.1 0.05
37 2 0.950056 0.149864 0.0808932
47 2 0.0498817 0.250103 0.0807491
42 1 0.1 0.2 0.05
55 2 0.249957 0.250114 0.0808971
50 1 0.3 0.2 0.05
63 2 0.449967 0.249926 0.0808504
58 1 0.5 0.2 0.05
66 1 0.7 0.2 0.05
71 2 0.650134 0.249849 0.0808152
74 1 0.9 0.2 0.05
79 2 0.849898 0.25012 0.0808007
44 1 0 0.3 0.05
45 2 0.149842 0.350126 0.0807819
52 1 0.2 0.3 0.05
53 2 0.349936 0.349993 0.0807815
60 1 0.4 0.3 0.05
61 2 0.550146 0.349993 0.0808256
68 1 0.6 0.3 0.05
69 2 0.750039 0.34985 0.0808146
76 1 0.8 0.3 0.05
77 2 0.949992 0.350087 0.0808731
87 2 0.0498847 0.449891 0.0808102
82 1 0.1 0.4 0.05
95 2 0.250108 0.450063 0.080863
90 1 0.3 0.4 0.05
103 2 0.449931 0.449996 0.0807631
98 1 0.5 0.4 0.05
106 1 0.7 0.4 0.05
111 2 0.650052 0.449838 0.08083
114 1 0.9 0.4 0.05
119 2 0.850035 0.449827 0.0807813
84 1 0 0.5 0.05
92 1 0.2 0.5 0.05
100 1 0.4 0.5 0.05
108 1 0.6 0.5 0.05
116 1 0.8 0.5 0.05
85 2 0.149852 0.549957 0.0808226
122 1 0.1 0.6 0.05
93 2 0.34996 0.550103 0.0808511
130 1 0.3 0.6 0.05
138 1 0.5 0.6 0.05
101 2 0.55005 0.550158 0.0808915
146 1 0.7 0.6 0.05
109 2 0.75013 0.549875 0.080883
154 1 0.9 0.6 0.05
117 2 0.950015 0.550147 0.0807927
124 1 0 0.7 0.05
127 2 0.050157 0.650113 0.0807651
132 1 0.2 0.7 0.05
135 2 0.249916 0.649956 0.0808585
140 1 0.4 0.7 0.05
143 2 0.450022 0.650126 0.0807811
148 1 0.6 0.7 0.05
151 2 0.649883 0.650024 0.0807664
156 1 0.8 0.7 0.05
159 2 0.850035 0.650084 0.0808741
125 2 0.150172 0.750023 0.0808929
162 1 0.1 0.8 0.05
133 2 0.350022 0.749903 0.0807932
170 1 0.3 0.8 0.05
178 1 0.5 0.8 0.05
141 2 0.5499 0.750095 0.0808845
186 1 0.7 0.8 0.05
149 2 0.749962 0.750029 0.0808139
194 1 0.9 0.8 0.05
157 2 0.950011 0.750107 0.0808231
164 1 0 0.9 0.05
167 2 0.0499921 0.850155 0.0807717
172 1 0.2 0.9 0.05
175 2 0.25011 0.849988 0.0808744
180 1 0.4 0.9 0.05
183 2 0.450105 0.850143 0.0808043
188 1 0.6 0.9 0.05
191 2 0.650089 0.849843 0.0808859
196 1 0.8 0.9 0.05
199 2 0.850136 0.849988 0.0808747
165 2 0.149839 0.949935 0.0808933
173 2 0.349989 0.949968 0.080873
181 2 0.549858 0.949944 0.080812
189 2 0.750116 0.950028 0.0807785
197 2 0.949881 0.949931 0.0807926
217 1 0.399871 0.00015163 0.111574
225 1 0.599841 -0.000118753 0.111529
203 1 0.100131 0.100035 0.111478
211 1 0.30002 0.100061 0.111554
219 1 0.500105 0.100164 0.111467
227 1 0.70005 0.100105 0.111477
235 1 0.900086 0.100013 0.111484
241 1 1.24668e-05 0.200092 0.111544
249 1 0.200144 0.199856 0.111528
257 1 0.400062 0.20002 0.111604
265 1 0.599943 0.200122 0.111565
273 1 0.799903 0.20011 0.111484
243 1 0.0999218 0.299842 0.111584
251 1 0.299906 0.299948 0.111468
259 1 0.50001 0.299866 0.11151
267 1 0.700133 0.299953 0.111557
275 1 0.900074 0.300086 0.111578
289 1 0.200012 0.399972 0.111565
297 1 0.400079 0.400023 0.111472
305 1 0.600055 0.399828 0.111632
313 1 0.800054 0.399979 0.111607
281 1 1 0.399849 0.111506
283 1 0.100012 0.500113 0.111473
291 1 0.299841 0.499995 0.111569
299 1 0.500137 0.500123 0.111607
307 1 0.700078 0.5001 0.111526
315 1 0.89992 0.499844 0.111564
321 1 -6.54944e-05 0.600172 0.111565
329 1 0.199886 0.599915 0.111566
337 1 0.400114 0.600093 0.111626
345 1 0.600172 0.599848 0.111547
353 1 0.799849 0.599962 0.111515
323 1 0.100013 0.700001 0.111486
331 1 0.300075 0.69996 0.111467
339 1 0.499863 0.700172 0.111615
347 1 0.700131 0.699926 0.111615
355 1 0.899956 0.700013 0.111572
369 1 0.200182 0.800157 0.111533
377 1 0.399886 0.8001 0.111551
385 1 0.599945 0.800072 0.111616
393 1 0.799886 0.799982 0.111583
361 1 1.00008 0.800042 0.111547
363 1 0.0999271 0.899838 0.111502
371 1 0.300017 0.899994 0.111633
379 1 0.499989 0.899847 0.111583
387 1 0.700123 0.900018 0.111509
395 1 0.899897 0.899887 0.111548
201 1 4.36539e-05 1.00008 0.111582
209 1 0.2 0.999883 0.111534
233 1 0.800131 0.999943 0.111466
208 2 0.149861 0.0501023 0.142214
216 2 0.350003 0.0501328 0.142237
218 1 0.499917 9.49809e-06 0.172992
224 2 0.549859 0.0501091 0.142357
226 1 0.699965 -0.000116231 0.172957
232 2 0.750042 0.0500904 0.142283
234 1 0.900164 -0.000160658 0.172959
240 2 0.950013 0.0501105 0.142232
206 2 0.0501062 0.150041 0.142243
204 1 -0.000120878 0.100009 0.173003
214 2 0.250008 0.150097 0.142284
212 1 0.199953 0.100092 0.173085
222 2 0.44994 0.149921 0.142212
220 1 0.399958 0.0998375 0.172945
228 1 0.599914 0.100064 0.173021
230 2 0.650057 0.149963 0.142225
236 1 0.799934 0.0999415 0.172979
238 2 0.849855 0.149932 0.142352
248 2 0.149909 0.250101 0.142231
242 1 0.100167 0.19995 0.173024
256 2 0.35004 0.249985 0.142277
250 1 0.300069 0.199959 0.173095
258 1 0.499876 0.199999 0.173016
264 2 0.549994 0.250008 0.142283
266 1 0.700037 0.200021 0.172929
272 2 0.750055 0.249859 0.142274
274 1 0.899829 0.19993 0.173043
280 2 0.949993 0.249861 0.14223
246 2 0.0501461 0.349888 0.142238
254 2 0.249913 0.350059 0.142225
252 1 0.200011 0.300147 0.17298
262 2 0.449915 0.350018 0.142343
260 1 0.400155 0.299845 0.173086
268 1 0.599982 0.30012 0.173031
270 2 0.650098 0.350116 0.142297
276 1 0.800029 0.300096 0.173038
278 2 0.849953 0.350139 0.142234
244 1 0.999991 0.299916 0.172948
288 2 0.150106 0.449908 0.142333
282 1 0.100074 0.39987 0.173068
296 2 0.349981 0.449997 0.142361
290 1 0.299905 0.399825 0.173057
298 1 0.500038 0.39992 0.173073
304 2 0.55 0.449975 0.142262
306 1 0.700031 0.399856 0.172991
312 2 0.750095 0.45001 0.142251
314 1 0.899908 0.399954 0.173021
320 2 0.949931 0.450087 0.142321
284 1 -1.54515e-05 0.499935 0.172994
292 1 0.200124 0.499844 0.172979
300 1 0.400079 0.500164 0.172999
308 1 0.600046 0.499941 0.172993
316 1 0.799969 0.500094 0.172965
286 2 0.0499914 0.549916 0.142216
322 1 0.10011 0.600039 0.173082
294 2 0.249866 0.549978 0.14221
330 1 0.300052 0.600149 0.173003
302 2 0.450094 0.55012 0.142328
338 1 0.500111 0.599916 0.172943
310 2 0.649942 0.550024 0.142238
346 1 0.700049 0.600144 0.172972
318 2 0.849938 0.550073 0.142196
354 1 0.899856 0.599809 0.173087
324 1 0.00016941 0.699891 0.172993
328 2 0.150034 0.650109 0.142262
332 1 0.200105 0.700033 0.173038
336 2 0.349947 0.650085 0.142357
340 1 0.39989 0.699852 0.173039
344 2 0.549963 0.649863 0.142245
348 1 0.599996 0.699868 0.173024
352 2 0.749914 0.649949 0.142263
356 1 0.800124 0.700068 0.17309
360 2 0.949838 0.650066 0.142257
326 2 0.0498657 0.749933 0.142216
362 1 0.10006 0.80008 0.173019
334 2 0.250102 0.750101 0.142306
370 1 0.299959 0.799953 0.173047
342 2 0.450087 0.750065 0.14237
378 1 0.500072 0.80005 0.173091
350 2 0.650153 0.749992 0.142349
386 1 0.700178 0.799971 0.173083
358 2 0.850139 0.750043 0.14222
394 1 0.899907 0.799853 0.173031
364 1 0.000108553 0.899987 0.172987
368 2 0.150034 0.849959 0.142225
372 1 0.199846 0.899992 0.17308
376 2 0.349884 0.850072 0.142336
380 1 0.40017 0.899991 0.173029
384 2 0.550167 0.850164 0.142247
388 1 0.600181 0.900008 0.173011
392 2 0.750038 0.850128 0.142356
396 1 0.800073 0.899886 0.173094
400 2 0.950109 0.849902 0.142348
366 2 0.0500179 0.950135 0.142253
202 1 0.100039 1.00004 0.173063
374 2 0.249856 0.949867 0.142271
210 1 0.299866 1.00012 0.173023
382 2 0.450026 0.950152 0.142205
390 2 0.649847 0.949963 0.142245
398 2 0.850102 0.950074 0.142264
207 2 0.050047 0.049987 0.203695
215 2 0.250051 0.0498954 0.2037
223 2 0.450142 0.0498508 0.203711
231 2 0.649955 0.0500543 0.203761
239 2 0.850013 0.0498747 0.203657
205 2 0.150109 0.150037 0.203762
213 2 0.350085 0.149944 0.203805
221 2 0.549834 0.150064 0.20379
229 2 0.750001 0.149908 0.203697
237 2 0.949879 0.149855 0.203772
247 2 0.0501299 0.250038 0.203771
255 2 0.249959 0.249895 0.203784
263 2 0.449914 0.249974 0.203712
271 2 0.650144 0.249874 0.203759
279 2 0.849869 0.25003 0.203686
245 2 0.149915 0.350121 0.203689
253 2 0.350142 0.34989 0.20381
261 2 0.550017 0.349931 0.203716
269 2 0.750049 0.350022 0.203674
277 2 0.950032 0.349992 0.203724
287 2 0.0500204 0.450001 0.203749
295 2 0.24985 0.450145 0.203818
303 2 0.450078 0.450026 0.203729
311 2 0.649896 0.44998 0.203699
319 2 0.849933 0.450016 0.203778
285 2 0.149873 0.549966 0.20382
293 2 0.350157 0.550143 0.203709
301 2 0.549981 0.549992 0.203782
309 2 0.749966 0.549903 0.203819
317 2 0.95016 0.549864 0.203784
327 2 0.0499828 0.650004 0.203674
335 2 0.250085 0.649857 0.203819
343 2 0.450097 0.649906 0.203667
351 2 0.649858 0.650085 0.203779
359 2 0.850078 0.649891 0.203744
325 2 0.150062 0.750084 0.203689
333 2 0.350053 0.749832 0.203739
341 2 0.550009 0.749887 0.203778
349 2 0.750097 0.750071 0.203823
357 2 0.950096 0.749879 0.203667
367 2 0.0501098 0.849865 0.203702
375 2 0.249873 0.849886 0.203688
383 2 0.449927 0.84999 0.203737
391 2 0.650167 0.850043 0.203797
399 2 0.850163 0.849869 0.203835
365 2 0.150034 0.949968 0.203714
373 2 0.349885 0.950068 0.203743
381 2 0.549953 0.94991 0.203692
389 2 0.749852 0.950085 0.2038
397 2 0.949866 0.949845 0.203766
409 1 0.199917 1.45262e-05 0.234538
417 1 0.399908 -9.64757e-05 0.234543
425 1 0.599897 6.41559e-05 0.234426
401 1 0.999903 -3.62274e-05 0.234518
403 1 0.100014 0.100054 0.234554
411 1 0.299822 0.0999269 0.234549
419 1 0.500062 0.0999738 0.234506
427 1 0.699834 0.100125 0.234438
435 1 0.899894 0.0998882 0.234479
441 1 -0.000125424 0.199836 0.234447
449 1 0.199984 0.199975 0.234543
457 1 0.399969 0.20017 0.234565
465 1 0.599824 0.200148 0.234548
473 1 0.799983 0.200072 0.234423
443 1 0.0999228 0.300068 0.234501
451 1 0.300019 0.29983 0.234496
459 1 0.499981 0.300007 0.234415
467 1 0.699985 0.299853 0.234512
475 1 0.899973 0.299866 0.234502
481 1 0.000147733 0.399972 0.234435
489 1 0.199823 0.3999 0.234545
497 1 0.39996 0.400146 0.234555
505 1 0.600011 0.400016 0.234502
513 1 0.800011 0.399958 0.234416
483 1 0.0998819 0.500132 0.234545
491 1 0.300029 0.500007 0.234473
499 1 0.500167 0.499899 0.234522
507 1 0.699861 0.500079 0.234409
515 1 0.899881 0.499885 0.23451
521 1 0.00015544 0.599865 0.234458
529 1 0.200007 0.599941 0.234556
537 1 0.399883 0.599983 0.23443
545 1 0.600047 0.599907 0.234399
553 1 0.799954 0.600057 0.234476
523 1 0.100167 0.700132 0.234447
531 1 0.29987 0.699834 0.234538
539 1 0.500129 0.700158 0.234529
547 1 0.699964 0.700135 0.234441
555 1 0.900116 0.700094 0.234427
569 1 0.199946 0.799912 0.234541
577 1 0.400095 0.800023 0.234474
585 1 0.600053 0.800143 0.234545
593 1 0.80018 0.80012 0.234535
561 1 1.00016 0.80002 0.234406
563 1 0.100162 0.899865 0.234482
571 1 0.299848 0.899924 0.234448
579 1 0.500029 0.899902 0.234418
587 1 0.700025 0.900022 0.234557
595 1 0.900132 0.90016 0.234556
433 1 0.799852 1.0001 0.234431
408 2 0.150013 0.0500961 0.265281
416 2 0.349879 0.0500433 0.265255
424 2 0.550128 0.0498576 0.265212
426 1 0.699858 1.46066e-05 0.295877
432 2 0.750048 0.0501359 0.265189
434 1 0.899844 -0.00014662 0.295899
440 2 0.949873 0.0498445 0.26528
406 2 0.0499855 0.149913 0.265207
412 1 0.200098 0.100072 0.296011
414 2 0.249935 0.150147 0.265238
420 1 0.400113 0.10013 0.295949
422 2 0.449877 0.149928 0.265183
428 1 0.600046 0.100169 0.295887
430 2 0.649896 0.150166 0.265163
436 1 0.799949 0.099998 0.29598
438 2 0.850139 0.150023 0.265275
404 1 0.999841 0.10007 0.295888
442 1 0.099871 0.200144 0.296006
448 2 0.150042 0.24995 0.265137
450 1 0.300067 0.200077 0.295946
456 2 0.349977 0.249968 0.265286
458 1 0.499901 0.200049 0.295957
464 2 0.549987 0.250004 0.265236
466 1 0.7 0.199831 0.295932
472 2 0.750086 0.250003 0.265163
474 1 0.90001 0.199923 0.296024
480 2 0.950151 0.250134 0.265186
446 2 0.0500917 0.349857 0.265161
452 1 0.200051 0.30011 0.296017
454 2 0.249911 0.349962 0.265153
460 1 0.400176 0.299939 0.295895
462 2 0.449977 0.350121 0.265235
468 1 0.599853 0.300036 0.295981
470 2 0.650101 0.349846 0.265225
476 1 0.800007 0.299874 0.295967
478 2 0.849968 0.35011 0.265152
444 1 0.999962 0.300083 0.295911
482 1 0.100081 0.399941 0.295874
488 2 0.149949 0.450094 0.265258
490 1 0.300033 0.400091 0.295913
496 2 0.349916 0.449974 0.265223
498 1 0.499938 0.400129 0.296014
504 2 0.549863 0.449819 0.265275
506 1 0.699841 0.399888 0.295936
512 2 0.749991 0.449951 0.265254
514 1 0.899928 0.400076 0.295939
520 2 0.950074 0.450029 0.26514
484 1 1.59861e-05 0.499913 0.295984
492 1 0.199936 0.499881 0.295876
500 1 0.399939 0.499978 0.295937
508 1 0.59998 0.499815 0.295869
516 1 0.800182 0.499846 0.295895
486 2 0.050032 0.55002 0.265212
522 1 0.100069 0.600024 0.29601
494 2 0.249858 0.550118 0.265213
530 1 0.299956 0.599973 0.295944
502 2 0.449892 0.550124 0.265223
538 1 0.499926 0.599877 0.295978
510 2 0.649869 0.549873 0.265278
546 1 0.700116 0.600009 0.295905
518 2 0.84992 0.550056 0.265283
554 1 0.900087 0.600135 0.295959
528 2 0.149983 0.649902 0.265196
532 1 0.199841 0.699847 0.295937
536 2 0.350072 0.649967 0.265153
540 1 0.399979 0.699992 0.295954
544 2 0.550154 0.650125 0.265182
548 1 0.599957 0.699907 0.295972
552 2 0.750118 0.650088 0.265141
556 1 0.79983 0.700156 0.295966
524 1 1.00004 0.700022 0.29597
560 2 0.950132 0.649841 0.265218
526 2 0.0499401 0.750024 0.265211
562 1 0.100033 0.799922 0.295985
534 2 0.24987 0.749927 0.265265
570 1 0.299917 0.79987 0.295945
542 2 0.449861 0.750116 0.265287
578 1 0.500076 0.799927 0.295868
550 2 0.650143 0.749841 0.265202
586 1 0.700069 0.800004 0.295925
558 2 0.850054 0.749916 0.265155
594 1 0.900074 0.799893 0.295907
564 1 6.76548e-05 0.899973 0.295936
568 2 0.15003 0.850127 0.265231
572 1 0.199958 0.89986 0.295947
576 2 0.349972 0.850005 0.265265
580 1 0.400179 0.900069 0.295893
584 2 0.550101 0.849941 0.26519
588 1 0.600042 0.900058 0.295954
592 2 0.750087 0.849976 0.265151
596 1 0.800165 0.899943 0.295861
600 2 0.949996 0.8501 0.265153
566 2 0.0499876 0.949913 0.265231
402 1 0.0998919 0.999864 0.295899
574 2 0.250162 0.949901 0.265172
410 1 0.300074 1.00012 0.29597
582 2 0.450043 0.949854 0.26515
418 1 0.500135 0.999856 0.295956
590 2 0.649986 0.949847 0.265204
598 2 0.849949 0.950073 0.265165
407 2 0.0499552 0.0501005 0.326701
415 2 0.249855 0.0499512 0.326725
423 2 0.450051 0.0500864 0.326732
431 2 0.649951 0.049974 0.326743
439 2 0.850095 0.0499421 0.326703
405 2 0.149994 0.149961 0.326641
413 2 0.350066 0.150043 0.326661
421 2 0.549871 0.150029 0.326632
429 2 0.750142 0.149918 0.326696
437 2 0.950015 0.15001 0.326758
447 2 0.0500146 0.249922 0.326698
455 2 0.250152 0.249948 0.326626
463 2 0.449934 0.249848 0.326711
471 2 0.64986 0.249877 0.326638
479 2 0.850029 0.250085 0.326631
445 2 0.149973 0.350115 0.326619
453 2 0.349987 0.350081 0.326702
461 2 0.549967 0.350097 0.326619
469 2 0.750003 0.35014 0.326647
477 2 0.949967 0.349868 0.326696
487 2 0.0499372 0.44993 0.326754
495 2 0.249836 0.449917 0.326594
503 2 0.4501 0.450074 0.326601
511 2 0.650112 0.45016 0.326717
519 2 0.850124 0.449985 0.326739
485 2 0.149924 0.550074 0.326731
493 2 0.35005 0.550058 0.3267
501 2 0.550044 0.549866 0.32673
509 2 0.750094 0.549922 0.326636
517 2 0.949941 0.550117 0.326732
527 2 0.0501031 0.649883 0.326737
535 2 0.249859 0.650064 0.326737
543 2 0.450173 0.650057 0.326684
551 2 0.650151 0.649934 0.326681
559 2 0.849945 0.649999 0.32661
525 2 0.149893 0.749966 0.326756
533 2 0.350051 0.75017 0.326604
541 2 0.549925 0.750023 0.326727
549 2 0.74994 0.749948 0.326687
557 2 0.949849 0.750157 0.326691
567 2 0.0500509 0.850125 0.326708
575 2 0.249971 0.849926 0.326635
583 2 0.450179 0.849902 0.326592
591 2 0.649979 0.849955 0.326673
599 2 0.849917 0.850089 0.32664
565 2 0.15013 0.950008 0.326724
573 2 0.350076 0.950034 0.3267
581 2 0.550008 0.949929 0.326748
589 2 0.749905 0.949873 0.326632
597 2 0.950132 0.95016 0.326697
608 2 0.149885 0.0501584 0.388205
609 1 0.199869 -1.11914e-05 0.357479
616 2 0.35002 0.0500058 0.388054
625 1 0.59999 9.99872e-05 0.357375
624 2 0.549899 0.0498862 0.38819
632 2 0.750021 0.0499463 0.388126
640 2 0.950097 0.0499074 0.388209
606 2 0.0499241 0.149886 0.388184
603 1 0.100139 0.100128 0.357413
614 2 0.250131 0.150109 0.388094
611 1 0.299841 0.100014 0.357472
622 2 0.450098 0.150071 0.388204
619 1 0.499836 0.09984 0.357341
627 1 0.699851 0.0998372 0.357452
630 2 0.649831 0.149954 0.388064
635 1 0.900148 0.100089 0.357456
638 2 0.849981 0.149916 0.388167
641 1 -5.59172e-05 0.200012 0.357477
648 2 0.149866 0.249912 0.388221
649 1 0.200031 0.20008 0.357359
656 2 0.350051 0.249898 0.388167
657 1 0.400172 0.200111 0.357355
665 1 0.599935 0.200153 0.357346
664 2 0.549861 0.250033 0.388212
673 1 0.80017 0.200111 0.357462
672 2 0.749978 0.249879 0.388177
680 2 0.950118 0.250094 0.388152
646 2 0.0499976 0.349981 0.388198
643 1 0.100178 0.300002 0.357365
654 2 0.249886 0.349911 0.388059
651 1 0.299935 0.299976 0.3574
662 2 0.449895 0.349934 0.388205
659 1 0.49998 0.299934 0.357345
667 1 0.700073 0.299977 0.357424
670 2 0.650049 0.349857 0.388114
675 1 0.900019 0.299832 0.357451
678 2 0.850028 0.34999 0.388093
681 1 7.17601e-05 0.400042 0.357486
688 2 0.149885 0.450009 0.388193
689 1 0.200004 0.399855 0.357327
696 2 0.35014 0.449992 0.38808
697 1 0.400022 0.40003 0.357355
705 1 0.600129 0.399942 0.357469
704 2 0.550078 0.449855 0.38813
713 1 0.800065 0.400168 0.357384
712 2 0.749872 0.449924 0.388106
720 2 0.949973 0.449946 0.388082
683 1 0.100013 0.49986 0.357454
691 1 0.299919 0.499961 0.357385
699 1 0.499937 0.499945 0.357456
707 1 0.700074 0.499992 0.357406
715 1 0.90011 0.500005 0.357391
721 1 0.000146881 0.599992 0.357362
686 2 0.0498545 0.549903 0.388203
729 1 0.199893 0.600097 0.35738
694 2 0.250104 0.54999 0.388118
737 1 0.400011 0.599975 0.357327
702 2 0.450097 0.550098 0.388076
745 1 0.60001 0.600148 0.357434
710 2 0.650029 0.549993 0.388134
753 1 0.80011 0.600081 0.35742
718 2 0.850023 0.549941 0.388103
723 1 0.0999521 0.699992 0.357448
728 2 0.14994 0.649967 0.388178
731 1 0.300162 0.699977 0.357366
736 2 0.350083 0.650089 0.388084
739 1 0.500019 0.700172 0.357437
744 2 0.549891 0.650051 0.388106
747 1 0.699878 0.70007 0.35733
752 2 0.749969 0.650096 0.388132
755 1 0.900003 0.699829 0.357426
760 2 0.950034 0.650077 0.388107
726 2 0.0499501 0.750109 0.38811
769 1 0.199961 0.799887 0.357401
734 2 0.249876 0.74992 0.388208
777 1 0.400114 0.80013 0.357394
742 2 0.449918 0.749883 0.388169
785 1 0.599975 0.800051 0.357411
750 2 0.64985 0.749918 0.38816
793 1 0.800036 0.799997 0.357372
758 2 0.849961 0.749975 0.388119
761 1 1.00011 0.800158 0.357486
763 1 0.100101 0.90013 0.357467
768 2 0.150042 0.850088 0.38809
771 1 0.300062 0.900148 0.35736
776 2 0.350061 0.850068 0.388173
779 1 0.500165 0.899961 0.357372
784 2 0.550117 0.850082 0.38822
787 1 0.7 0.899847 0.357446
792 2 0.750032 0.849924 0.388163
795 1 0.899847 0.899852 0.357349
800 2 0.949864 0.850109 0.388144
766 2 0.0501076 0.950004 0.388208
774 2 0.249923 0.949966 0.388219
617 1 0.399995 0.999825 0.357336
782 2 0.450158 0.950002 0.388147
790 2 0.649831 0.949884 0.388164
633 1 0.79991 0.999853 0.357443
798 2 0.850037 0.949909 0.388161
601 1 0.999957 1.00012 0.357453
610 1 0.300015 4.30457e-05 0.418825
618 1 0.500155 9.73436e-05 0.418824
626 1 0.700007 -4.66142e-05 0.418872
634 1 0.899882 0.0001437 0.418947
612 1 0.200017 0.099877 0.418919
620 1 0.399927 0.100048 0.418864
628 1 0.600068 0.0998422 0.418932
636 1 0.80009 0.0999421 0.41884
604 1 0.999953 0.0999897 0.4188
642 1 0.0999045 0.199948 0.418887
650 1 0.29985 0.2 0.418926
658 1 0.499966 0.200072 0.418813
666 1 0.700052 0.200075 0.418893
674 1 0.900161 0.200011 0.418799
652 1 0.200115 0.300048 0.418796
660 1 0.39989 0.30006 0.418846
668 1 0.599838 0.300115 0.418835
676 1 0.799841 0.300125 0.418842
644 1 1.00014 0.299996 0.418836
682 1 0.100019 0.400092 0.418959
690 1 0.300057 0.400121 0.418884
698 1 0.499954 0.399945 0.418923
706 1 0.699932 0.399992 0.418876
714 1 0.899952 0.399962 0.418846
692 1 0.200066 0.500035 0.418922
700 1 0.400067 0.50013 0.418828
708 1 0.600107 0.500065 0.418944
716 1 0.800099 0.499903 0.418899
684 1 0.999831 0.500008 0.418888
722 1 0.0998346 0.60001 0.418912
730 1 0.299964 0.599874 0.418871
738 1 0.499884 0.600101 0.418797
746 1 0.700082 0.600158 0.418916
754 1 0.900002 0.599846 0.418917
724 1 -0.000137287 0.700034 0.418849
732 1 0.200045 0.700015 0.418905
740 1 0.400103 0.700034 0.418857
748 1 0.600077 0.700043 0.418918
756 1 0.799893 0.700077 0.418829
762 1 0.100117 0.799906 0.418944
770 1 0.300031 0.800005 0.418824
778 1 0.500129 0.799821 0.418806
786 1 0.699902 0.799898 0.418836
794 1 0.899822 0.8 0.418873
764 1 -4.83554e-05 0.899976 0.418916
772 1 0.199825 0.900081 0.418892
780 1 0.399951 0.899889 0.418949
788 1 0.599874 0.900167 0.418948
796 1 0.800056 0.900152 0.418794
602 1 0.0998987 0.999937 0.418805
607 2 0.050098 0.0499258 0.449588
615 2 0.249993 0.0499576 0.44964
623 2 0.449906 0.0499303 0.449588
631 2 0.65007 0.0501505 0.449657
639 2 0.849936 0.0501747 0.449672
605 2 0.149844 0.149895 0.449543
613 2 0.349917 0.150012 0.449602
621 2 0.549844 0.150031 0.449582
629 2 0.749963 0.149893 0.449641
637 2 0.949865 0.150121 0.449611
647 2 0.0499648 0.249926 0.449553
655 2 0.249983 0.250014 0.449607
663 2 0.450098 0.249857 0.449534
671 2 0.650007 0.250032 0.449662
679 2 0.850024 0.249948 0.449541
645 2 0.150045 0.34993 0.449573
653 2 0.349894 0.350084 0.449618
661 2 0.550093 0.350163 0.449544
669 2 0.749932 0.349867 0.449666
677 2 0.950021 0.350078 0.449573
687 2 0.0499375 0.450134 0.44955
695 2 0.250148 0.449961 0.449618
703 2 0.450094 0.45007 0.44968
711 2 0.649924 0.450147 0.449619
719 2 0.850091 0.450082 0.449683
685 2 0.15013 0.549911 0.449543
693 2 0.350064 0.549871 0.44955
701 2 0.549947 0.550024 0.449671
709 2 0.74993 0.549924 0.449616
717 2 0.950022 0.550036 0.449647
727 2 0.0498789 0.650163 0.449575
735 2 0.249995 0.65002 0.449549
743 2 0.450114 0.650121 0.449612
751 2 0.649874 0.649994 0.449693
759 2 0.849962 0.649994 0.449551
725 2 0.150027 0.749973 0.44963
733 2 0.350084 0.749922 0.449673
741 2 0.55004 0.75005 0.449679
749 2 0.749854 0.749959 0.449643
757 2 0.949866 0.75002 0.449627
767 2 0.0499568 0.849846 0.449564
775 2 0.249911 0.850159 0.449565
783 2 0.450098 0.84986 0.449583
791 2 0.650059 0.850089 0.44963
799 2 0.849851 0.850112 0.449575
765 2 0.150069 0.949876 0.449596
773 2 0.349842 0.94988 0.449567
781 2 0.550125 0.950049 0.449573
789 2 0.749957 0.949888 0.449566
797 2 0.9501 0.950115 0.449658
808 2 0.149972 0.0499465 0.511084
809 1 0.199834 -0.000145523 0.480261
816 2 0.349929 0.050023 0.511018
824 2 0.549958 0.0498944 0.511031
825 1 0.599988 -7.13007e-05 0.480373
832 2 0.749851 0.0498873 0.511044
833 1 0.800081 0.00010385 0.480291
840 2 0.950023 0.0500048 0.51101
806 2 0.0499627 0.149998 0.511097
803 1 0.100048 0.100094 0.480327
814 2 0.249885 0.149845 0.510996
811 1 0.300142 0.0998452 0.480253
822 2 0.449877 0.149854 0.511118
819 1 0.499874 0.0999345 0.480319
827 1 0.700098 0.100077 0.480298
830 2 0.649876 0.149948 0.511029
835 1 0.899973 0.0999864 0.480308
838 2 0.849845 0.150024 0.510998
841 1 -9.48915e-07 0.19999 0.48039
848 2 0.15001 0.250151 0.511102
849 1 0.199837 0.199885 0.480411
856 2 0.34989 0.250053 0.511084
857 1 0.399983 0.200075 0.480298
864 2 0.549937 0.249898 0.511004
865 1 0.599973 0.20005 0.480308
872 2 0.749993 0.249911 0.510993
873 1 0.800066 0.199965 0.480268
880 2 0.950156 0.250018 0.511074
846 2 0.0501351 0.350163 0.510999
843 1 0.0999232 0.300151 0.480304
854 2 0.250007 0.350119 0.511054
851 1 0.300066 0.299926 0.480416
862 2 0.449858 0.34985 0.511132
859 1 0.500145 0.299841 0.480389
867 1 0.699845 0.29991 0.480342
870 2 0.649987 0.349845 0.511061
875 1 0.899938 0.300127 0.480401
878 2 0.849988 0.350063 0.511105
888 2 0.150061 0.450145 0.511101
889 1 0.199884 0.400133 0.480268
896 2 0.349921 0.449954 0.511116
897 1 0.399871 0.399912 0.480263
904 2 0.549898 0.450101 0.511076
905 1 0.600101 0.400154 0.480287
912 2 0.750138 0.44995 0.511122
913 1 0.80013 0.399895 0.480329
881 1 1.00015 0.400014 0.480299
920 2 0.949967 0.450133 0.511061
883 1 0.0999308 0.499833 0.480399
891 1 0.299913 0.50012 0.480388
899 1 0.500143 0.499957 0.480405
907 1 0.700019 0.499921 0.480393
915 1 0.899861 0.499977 0.480281
886 2 0.0499622 0.550071 0.511022
894 2 0.250096 0.549978 0.510999
929 1 0.200142 0.599975 0.480315
902 2 0.450151 0.5499 0.511102
937 1 0.400022 0.599828 0.48035
945 1 0.599918 0.599942 0.480426
910 2 0.650003 0.550119 0.510995
953 1 0.800096 0.599881 0.480301
918 2 0.850051 0.54997 0.511095
921 1 1.00009 0.600019 0.480414
923 1 0.0998398 0.700058 0.480262
928 2 0.149982 0.650084 0.510993
931 1 0.299985 0.700086 0.480404
936 2 0.35 0.649842 0.51103
939 1 0.499913 0.700045 0.480284
944 2 0.550018 0.650105 0.511135
947 1 0.700045 0.699892 0.480417
952 2 0.749931 0.650021 0.511024
955 1 0.899906 0.699908 0.480378
960 2 0.949997 0.64987 0.511021
926 2 0.0500582 0.750053 0.511024
934 2 0.250111 0.750067 0.511084
969 1 0.199923 0.800156 0.480367
942 2 0.45014 0.750134 0.511008
977 1 0.399903 0.800016 0.480405
985 1 0.600062 0.799937 0.480321
950 2 0.649876 0.750123 0.511036
993 1 0.799907 0.799903 0.480361
958 2 0.849848 0.750065 0.511109
961 1 0.999989 0.799957 0.480375
963 1 0.0998523 0.899891 0.480406
968 2 0.150059 0.850134 0.511046
971 1 0.300077 0.899938 0.480391
976 2 0.349986 0.850058 0.511144
979 1 0.500114 0.899884 0.480332
984 2 0.54992 0.850121 0.511094
987 1 0.699963 0.899897 0.480333
992 2 0.749971 0.850055 0.511091
995 1 0.89994 0.899887 0.480266
1000 2 0.949946 0.850129 0.511095
966 2 0.0500888 0.950075 0.511076
974 2 0.250059 0.950084 0.511076
817 1 0.399885 0.999988 0.480366
982 2 0.450029 0.950116 0.511138
990 2 0.650104 0.950161 0.510995
998 2 0.850102 0.949957 0.511127
801 1 0.999848 0.999998 0.480274
802 1 0.100061 0.000137699 0.541861
810 1 0.300046 -0.000147988 0.541793
834 1 0.899893 7.35983e-05 0.541823
804 1 6.98331e-05 0.0998516 0.541827
812 1 0.199867 0.100066 0.541796
820 1 0.400066 0.0999235 0.541845
828 1 0.600079 0.0999944 0.54182
836 1 0.799814 0.100012 0.541713
842 1 0.100121 0.200083 0.541796
850 1 0.299857 0.199969 0.541742
858 1 0.500128 0.200156 0.541865
866 1 0.699873 0.200133 0.541755
874 1 0.900142 0.19986 0.541775
844 1 -8.45608e-05 0.299879 0.541796
852 1 0.200028 0.300005 0.54179
860 1 0.39989 0.2999 0.541846
868 1 0.599925 0.300064 0.541839
876 1 0.800136 0.299937 0.541764
882 1 0.0999948 0.400054 0.541884
890 1 0.300018 0.400006 0.541838
898 1 0.500021 0.399919 0.541854
906 1 0.699832 0.400037 0.541764
914 1 0.899868 0.399872 0.541818
884 1 4.87592e-05 0.499839 0.541845
892 1 0.200046 0.50012 0.541777
900 1 0.399848 0.500168 0.541873
908 1 0.600094 0.499867 0.541768
916 1 0.800151 0.499975 0.541804
922 1 0.0998922 0.600159 0.541812
930 1 0.300028 0.59984 0.541835
938 1 0.499857 0.599842 0.541835
946 1 0.700002 0.600042 0.541864
954 1 0.900124 0.599875 0.541788
924 1 -9.84799e-05 0.69995 0.54187
932 1 0.20008 0.699942 0.541805
940 1 0.400025 0.700074 0.541854
948 1 0.600118 0.700166 0.541858
956 1 0.799936 0.700024 0.541743
962 1 0.0998537 0.799837 0.541787
970 1 0.300041 0.800118 0.541833
978 1 0.499953 0.799925 0.541874
986 1 0.699957 0.800022 0.54174
994 1 0.899858 0.800099 0.541796
964 1 2.28036e-05 0.900003 0.541832
972 1 0.199956 0.900145 0.541748
980 1 0.399961 0.899908 0.541757
988 1 0.60004 0.900179 0.54176
996 1 0.800081 0.899939 0.541751
818 1 0.500037 1.0001 0.541875
826 1 0.700031 1.00004 0.54178
807 2 0.0499876 0.0498382 0.572536
1001 1 -0.000177193 2.04087e-05 0.603235
815 2 0.250055 0.0498643 0.572551
823 2 0.449881 0.0499715 0.57255
831 2 0.649917 0.0501159 0.5726
1033 1 0.799897 -0.000103917 0.603256
839 2 0.849975 0.0500561 0.572492
805 2 0.150055 0.149899 0.572566
1003 1 0.0999103 0.0998953 0.603283
813 2 0.349948 0.150063 0.572546
1011 1 0.300126 0.100065 0.603278
1019 1 0.499943 0.100014 0.603346
821 2 0.549947 0.14992 0.572462
1027 1 0.699939 0.100138 0.603294
829 2 0.749847 0.149933 0.572558
1035 1 0.900088 0.0999878 0.603349
837 2 0.949976 0.150114 0.572572
847 2 0.0498729 0.249987 0.572595