ITEM: TIMESTEP
300
ITEM: NUMBER OF ATOMS
1250
ITEM: BOX BOUNDS pp pp pp
0.0000000000000000e+00 3.6500000000000000e+01
0.0000000000000000e+00 3.6500000000000000e+01
-1.4600000000000000e+01 5.8399999999999999e+01
ITEM: ATOMS id type xs ys zs
1 1 0 0 0
8 2 0.15 0.05 0.025
9 1 0.2 0 0
16 2 0.35 0.05 0.025
17 1 0.4 0 0
24 2 0.55 0.05 0.025
25 1 0.6 0 0
32 2 0.75 0.05 0.025
33 1 0.8 0 0
40 2 0.95 0.05 0.025
3 1 0.1 0.1 0
11 1 0.3 0.1 0
19 1 0.5 0.1 0
27 1 0.7 0.1 0
35 1 0.9 0.1 0
6 2 0.05 0.15 0.025
41 1 0 0.2 0
49 1 0.2 0.2 0
14 2 0.25 0.15 0.025
57 1 0.4 0.2 0
22 2 0.45 0.15 0.025
65 1 0.6 0.2 0
30 2 0.65 0.15 0.025
38 2 0.85 0.15 0.025
73 1 0.8 0.2 0
48 2 0.15 0.25 0.025
56 2 0.35 0.25 0.025
64 2 0.55 0.25 0.025
72 2 0.75 0.25 0.025
80 2 0.95 0.25 0.025
46 2 0.05 0.35 0.025
43 1 0.1 0.3 0
54 2 0.25 0.35 0.025
51 1 0.3 0.3 0
62 2 0.45 0.35 0.025
59 1 0.5 0.3 0
67 1 0.7 0.3 0
70 2 0.65 0.35 0.025
78 2 0.85 0.35 0.025
75 1 0.9 0.3 0
81 1 0 0.4 0
89 1 0.2 0.4 0
97 1 0.4 0.4 0
105 1 0.6 0.4 0
113 1 0.8 0.4 0
88 2 0.15 0.45 0.025
96 2 0.35 0.45 0.025
104 2 0.55 0.45 0.025
112 2 0.75 0.45 0.025
120 2 0.95 0.45 0.025
86 2 0.05 0.55 0.025
83 1 0.1 0.5 0
94 2 0.25 0.55 0.025
91 1 0.3 0.5 0
102 2 0.45 0.55 0.025
99 1 0.5 0.5 0
107 1 0.7 0.5 0
110 2 0.65 0.55 0.025
118 2 0.85 0.55 0.025
115 1 0.9 0.5 0
121 1 0 0.6 0
129 1 0.2 0.6 0
137 1 0.4 0.6 0
145 1 0.6 0.6 0
153 1 0.8 0.6 0
123 1 0.1 0.7 0
128 2 0.15 0.65 0.025
131 1 0.3 0.7 0
136 2 0.35 0.65 0.025
139 1 0.5 0.7 0
144 2 0.55 0.65 0.025
147 1 0.7 0.7 0
152 2 0.75 0.65 0.025
155 1 0.9 0.7 0
160 2 0.95 0.65 0.025
126 2 0.05 0.75 0.025
134 2 0.25 0.75 0.025
142 2 0.45 0.75 0.025
150 2 0.65 0.75 0.025
158 2 0.85 0.75 0.025
161 1 0 0.8 0
168 2 0.15 0.85 0.025
169 1 0.2 0.8 0
176 2 0.35 0.85 0.025
177 1 0.4 0.8 0
184 2 0.55 0.85 0.025
185 1 0.6 0.8 0
192 2 0.75 0.85 0.025
193 1 0.8 0.8 0
200 2 0.95 0.85 0.025
163 1 0.1 0.9 0
171 1 0.3 0.9 0
179 1 0.5 0.9 0
187 1 0.7 0.9 0
195 1 0.9 0.9 0
166 2 0.05 0.95 0.025
174 2 0.25 0.95 0.025
182 2 0.45 0.95 0.025
190 2 0.65 0.95 0.025
198 2 0.85 0.95 0.025
7 2 0.0500389 0.050238 0.0711716
2 1 0.1 0 0.05
15 2 0.249847 0.0500078 0.0712702
10 1 0.3 0 0.05
23 2 0.450144 0.0500875 0.0712863
18 1 0.5 0 0.05
26 1 0.7 0 0.05
31 2 0.650092 0.0499968 0.0711766
39 2 0.850195 0.0500636 0.0711896
34 1 0.9 0 0.05
4 1 0 0.1 0.05
12 1 0.2 0.1 0.05
20 1 0.4 0.1 0.05
28 1 0.6 0.1 0.05
36 1 0.8 0.1 0.05
42 1 0.1 0.2 0.05
5 2 0.149844 0.150066 0.071064
50 1 0.3 0.2 0.05
13 2 0.349908 0.150121 0.0712927
58 1 0.5 0.2 0.05
21 2 0.550101 0.150167 0.0710633
66 1 0.7 0.2 0.05
29 2 0.750238 0.149861 0.0710868
74 1 0.9 0.2 0.05
37 2 0.950115 0.149779 0.0712853
47 2 0.049788 0.250176 0.0710167
55 2 0.249915 0.250184 0.0712877
63 2 0.449934 0.249858 0.0712067
71 2 0.650242 0.249744 0.0711455
79 2 0.849836 0.250228 0.0711175
44 1 0 0.3 0.05
52 1 0.2 0.3 0.05
45 2 0.149707 0.350203 0.0710887
53 2 0.349885 0.349985 0.0710765
60 1 0.4 0.3 0.05
61 2 0.550258 0.349978 0.0711656
68 1 0.6 0.3 0.05
69 2 0.750084 0.349744 0.0711456
76 1 0.8 0.3 0.05
77 2 0.949982 0.350146 0.0712457
82 1 0.1 0.4 0.05
90 1 0.3 0.4 0.05
98 1 0.5 0.4 0.05
106 1 0.7 0.4 0.05
114 1 0.9 0.4 0.05
87 2 0.0497943 0.449803 0.0711326
95 2 0.250177 0.4501 0.0712316
103 2 0.449908 0.450024 0.0710486
111 2 0.650089 0.449709 0.0711779
119 2 0.850048 0.449679 0.0710799
84 1 0 0.5 0.05
92 1 0.2 0.5 0.05
85 2 0.14974 0.549929 0.0711487
93 2 0.349937 0.55019 0.0712224
100 1 0.4 0.5 0.05
101 2 0.550106 0.550285 0.071284
108 1 0.6 0.5 0.05
109 2 0.750224 0.549781 0.0712599
116 1 0.8 0.5 0.05
117 2 0.950018 0.550252 0.0711095
122 1 0.1 0.6 0.05
130 1 0.3 0.6 0.05
138 1 0.5 0.6 0.05
146 1 0.7 0.6 0.05
154 1 0.9 0.6 0.05
124 1 0 0.7 0.05
127 2 0.0502757 0.650203 0.0710462
132 1 0.2 0.7 0.05
135 2 0.249836 0.649904 0.0712256
140 1 0.4 0.7 0.05
143 2 0.450047 0.650241 0.0710837
148 1 0.6 0.7 0.05
151 2 0.649809 0.650046 0.0710557
156 1 0.8 0.7 0.05
159 2 0.85005 0.650143 0.0712556
125 2 0.150328 0.750064 0.0712899
133 2 0.350046 0.749838 0.0710983
141 2 0.549823 0.750175 0.0712799
149 2 0.749928 0.750042 0.0711437
157 2 0.950022 0.750193 0.0711618
167 2 0.0499773 0.85026 0.0710535
162 1 0.1 0.8 0.05
175 2 0.250223 0.850007 0.0712494
170 1 0.3 0.8 0.05
183 2 0.450178 0.850244 0.0711227
178 1 0.5 0.8 0.05
186 1 0.7 0.8 0.05
191 2 0.65016 0.849724 0.0712781
199 2 0.850215 0.849958 0.0712543
194 1 0.9 0.8 0.05
164 1 0 0.9 0.05
172 1 0.2 0.9 0.05
180 1 0.4 0.9 0.05
188 1 0.6 0.9 0.05
196 1 0.8 0.9 0.05
165 2 0.149701 0.949865 0.0712859
173 2 0.349974 0.949944 0.0712571
181 2 0.54972 0.949872 0.071134
189 2 0.750218 0.950057 0.071068
197 2 0.94979 0.949876 0.0711091
201 1 5.99596e-05 0.000160864 0.0924556
209 1 0.199961 -0.00020946 0.0923835
217 1 0.399763 0.000283547 0.0924498
233 1 0.800242 -8.08801e-05 0.0922559
203 1 0.100217 0.100087 0.0922669
211 1 0.30001 0.100122 0.0924162
219 1 0.500202 0.100309 0.0922507
227 1 0.700109 0.10018 0.0922691
235 1 0.900128 0.100037 0.0922983
249 1 0.200222 0.199765 0.092367
257 1 0.400099 0.200029 0.0925117
265 1 0.59991 0.20021 0.0924358
273 1 0.799848 0.200174 0.0922829
241 1 1.00004 0.200151 0.0923908
243 1 0.0998546 0.299726 0.0924512
251 1 0.299844 0.299928 0.0922645
259 1 0.500012 0.299784 0.0923354
267 1 0.700238 0.299895 0.0924249
275 1 0.900117 0.300156 0.0924616
281 1 -2.37571e-06 0.399739 0.0923441
289 1 0.200015 0.399962 0.0924256
297 1 0.400116 0.40004 0.0922661
305 1 0.600108 0.399701 0.0925626
313 1 0.800081 0.399956 0.0925004
283 1 0.100019 0.500137 0.0922676
291 1 0.299745 0.500003 0.0924498
299 1 0.500226 0.500219 0.0925119
315 1 0.899854 0.499741 0.0924228
307 1 0.700131 0.500152 0.0923632
329 1 0.199758 0.599847 0.0924332
337 1 0.400203 0.600203 0.092554
345 1 0.600308 0.599758 0.0923995
353 1 0.799736 0.599958 0.0923395
321 1 0.999901 0.600337 0.0924293
323 1 0.10004 0.700023 0.0922873
331 1 0.300123 0.699932 0.0922575
339 1 0.499761 0.700301 0.0925359
347 1 0.700214 0.699865 0.0925212
355 1 0.899938 0.700052 0.09244
369 1 0.200353 0.800278 0.0923849
377 1 0.39981 0.800191 0.0924131
385 1 0.599927 0.800104 0.0925429
393 1 0.799801 0.799986 0.0924723
361 1 1.00015 0.800095 0.0923958
363 1 0.0998545 0.899718 0.0923273
371 1 0.300023 0.899996 0.0925695
379 1 0.499986 0.899756 0.0924723
387 1 0.700225 0.900043 0.0923323
395 1 0.899851 0.899787 0.0924175
225 1 0.59968 0.999816 0.0923718
208 2 0.149772 0.0501836 0.11352
216 2 0.349964 0.0502373 0.113561
210 1 0.299763 0.00019629 0.134878
224 2 0.549736 0.0502016 0.113781
226 1 0.699907 -0.000186511 0.134771
232 2 0.750071 0.0501359 0.113631
234 1 0.900316 -0.000278711 0.134772
240 2 0.950019 0.0501944 0.113548
204 1 -0.00019636 0.10003 0.134855
212 1 0.199925 0.100152 0.135005
220 1 0.399952 0.0997036 0.134757
228 1 0.599838 0.100145 0.134901
236 1 0.799883 0.0998761 0.134823
206 2 0.0501993 0.150074 0.113572
242 1 0.100313 0.199921 0.134901
214 2 0.250033 0.150162 0.113661
250 1 0.300138 0.19992 0.135038
222 2 0.449896 0.149844 0.113513
258 1 0.499756 0.199991 0.134877
230 2 0.650088 0.149943 0.113531
266 1 0.700077 0.200003 0.134719
238 2 0.849723 0.149875 0.113761
274 1 0.899688 0.199863 0.134937
248 2 0.149876 0.25016 0.113548
256 2 0.350065 0.249982 0.113639
264 2 0.549981 0.25002 0.113657
272 2 0.750119 0.249769 0.113633
280 2 0.949961 0.249734 0.113551
246 2 0.0502609 0.349789 0.113564
244 1 -3.57782e-06 0.299832 0.134752
252 1 0.200011 0.300257 0.134819
254 2 0.249851 0.350091 0.11353
260 1 0.400258 0.299724 0.135013
262 2 0.449861 0.350015 0.113757
268 1 0.600011 0.300193 0.134912
270 2 0.650198 0.350168 0.113675
278 2 0.849923 0.350238 0.11356
276 1 0.800048 0.300174 0.134909
282 1 0.100112 0.399788 0.134973
290 1 0.299816 0.399687 0.13498
298 1 0.500072 0.399857 0.134989
306 1 0.700069 0.399784 0.134837
314 1 0.899829 0.399933 0.134902
288 2 0.150171 0.449833 0.113738
296 2 0.349962 0.449989 0.113797
300 1 0.400165 0.500301 0.134854
304 2 0.550008 0.449934 0.113612
308 1 0.600061 0.499906 0.134838
312 2 0.750162 0.450018 0.113587
320 2 0.949879 0.450117 0.113716
284 1 0.999994 0.499874 0.134841
286 2 0.0499864 0.549877 0.113523
292 1 0.200187 0.499755 0.134824
294 2 0.249763 0.549976 0.113516
302 2 0.450188 0.550223 0.113728
310 2 0.649929 0.550034 0.113567
318 2 0.849871 0.550122 0.113476
316 1 0.799951 0.500178 0.134793
322 1 0.100193 0.600063 0.134997
330 1 0.300074 0.600235 0.134856
338 1 0.500224 0.599839 0.134756
346 1 0.70006 0.600242 0.134814
354 1 0.899773 0.59963 0.135016
328 2 0.150065 0.650204 0.113613
332 1 0.200224 0.700053 0.13493
336 2 0.349903 0.650158 0.113778
340 1 0.39984 0.699738 0.13493
344 2 0.549946 0.649751 0.113562
348 1 0.599979 0.699763 0.134893
352 2 0.749891 0.649926 0.11362
356 1 0.800231 0.700115 0.135019
360 2 0.949683 0.650109 0.113615
324 1 1.00028 0.699787 0.134825
326 2 0.0497916 0.749886 0.11352
334 2 0.250203 0.75017 0.113682
342 2 0.450114 0.750144 0.113826
350 2 0.650281 0.749981 0.113782
358 2 0.850226 0.750073 0.113529
362 1 0.100109 0.800109 0.134869
368 2 0.150064 0.849931 0.113534
376 2 0.349796 0.850133 0.11376
370 1 0.29995 0.799905 0.134953
384 2 0.550307 0.850298 0.113594
378 1 0.500171 0.800118 0.135027
386 1 0.700345 0.799967 0.13502
392 2 0.750076 0.850231 0.113791
394 1 0.899867 0.799725 0.134916
400 2 0.950183 0.849811 0.113774
364 1 0.000213752 0.899983 0.134835
372 1 0.199709 0.89996 0.134998
380 1 0.400288 0.900023 0.134906
388 1 0.60034 0.900005 0.134885
396 1 0.80016 0.899828 0.135052
366 2 0.0500563 0.950241 0.113589
202 1 0.100083 1.00008 0.134965
374 2 0.249728 0.949754 0.113637
382 2 0.450039 0.950275 0.113493
218 1 0.499864 0.999995 0.134835
390 2 0.649737 0.949924 0.113559
398 2 0.850178 0.950103 0.11361
207 2 0.0500668 0.0499885 0.156035
409 1 0.199865 1.87631e-05 0.17747
215 2 0.250048 0.0498217 0.156042
417 1 0.399835 -0.000162279 0.17748
223 2 0.45023 0.0497232 0.156062
231 2 0.649909 0.0500934 0.156137
239 2 0.850023 0.0497504 0.155937
433 1 0.799731 0.000188929 0.177264
403 1 0.100039 0.100097 0.177492
411 1 0.299663 0.0998818 0.17749
419 1 0.500105 0.0999196 0.177413
427 1 0.699696 0.100242 0.177282
435 1 0.899793 0.0997585 0.177365
205 2 0.150194 0.15007 0.156164
449 1 0.199971 0.199952 0.177476
213 2 0.350162 0.149874 0.156244
457 1 0.399936 0.200299 0.177519
221 2 0.549693 0.150135 0.156206
465 1 0.599674 0.200277 0.17748
229 2 0.749994 0.149845 0.15602
473 1 0.799985 0.200095 0.177251
237 2 0.949743 0.149718 0.156169
441 1 0.99979 0.199707 0.177291
247 2 0.0502261 0.250042 0.156165
255 2 0.24991 0.249809 0.156188
263 2 0.449857 0.249935 0.156067
271 2 0.650239 0.249769 0.15614
279 2 0.849763 0.250061 0.156007
443 1 0.0999068 0.30012 0.177388
245 2 0.149846 0.350192 0.156021
253 2 0.350268 0.349782 0.156248
451 1 0.300034 0.299682 0.177394
459 1 0.499951 0.300013 0.177238
261 2 0.550041 0.349885 0.15607
467 1 0.70001 0.299738 0.177411
269 2 0.75007 0.350016 0.155991
475 1 0.899943 0.29977 0.177394
277 2 0.950054 0.349966 0.156075
481 1 0.000276091 0.399931 0.177272
489 1 0.199653 0.399848 0.177482
497 1 0.399936 0.400276 0.177499
505 1 0.600014 0.399995 0.177406
513 1 0.79999 0.399935 0.177239
287 2 0.0500587 0.450006 0.156123
295 2 0.249728 0.450218 0.156266
491 1 0.300054 0.500063 0.177345
303 2 0.450145 0.45006 0.156092
499 1 0.500275 0.49983 0.177452
311 2 0.649822 0.449943 0.156024
319 2 0.849859 0.450033 0.15617
515 1 0.899785 0.499817 0.177423
483 1 0.0997782 0.500217 0.177486
285 2 0.149804 0.549913 0.156262
293 2 0.350261 0.550259 0.156043
301 2 0.549978 0.54996 0.15618
507 1 0.69973 0.500105 0.177238
309 2 0.749928 0.549853 0.156249
317 2 0.950276 0.549727 0.156197
529 1 0.199989 0.599891 0.177498
537 1 0.399827 0.599993 0.177259
545 1 0.600085 0.599827 0.177217
553 1 0.799928 0.60009 0.177353
521 1 1.0003 0.599756 0.177311
327 2 0.0500063 0.650008 0.155993
523 1 0.10029 0.700233 0.177292
335 2 0.250131 0.649727 0.156262
531 1 0.299769 0.699708 0.177475
343 2 0.450203 0.649827 0.155975
539 1 0.500188 0.700278 0.177457
351 2 0.649766 0.650147 0.15618
547 1 0.699959 0.700222 0.177279
359 2 0.85015 0.649808 0.156124
555 1 0.900241 0.700118 0.177259
325 2 0.15013 0.750164 0.156007
333 2 0.350077 0.749685 0.15612
341 2 0.550057 0.74982 0.156185
349 2 0.750218 0.750148 0.156275
357 2 0.950211 0.749782 0.155964
367 2 0.0502252 0.849776 0.156034
561 1 0.000265926 0.800032 0.177213
569 1 0.199892 0.79985 0.177478
375 2 0.24974 0.849773 0.156015
577 1 0.400136 0.80004 0.177349
383 2 0.449887 0.849974 0.156103
585 1 0.600134 0.800216 0.177477
391 2 0.650328 0.850078 0.156221
399 2 0.850339 0.849785 0.156297
593 1 0.800344 0.800197 0.177466
563 1 0.100278 0.899765 0.177358
571 1 0.299738 0.899825 0.177287
579 1 0.500065 0.899793 0.177238
587 1 0.70006 0.900037 0.177511
595 1 0.900207 0.900277 0.177507
401 1 -0.000179212 0.999916 0.177429
365 2 0.15005 0.949954 0.15607
373 2 0.349778 0.950108 0.156112
381 2 0.549914 0.949835 0.156007
425 1 0.599831 1.00007 0.177252
389 2 0.749731 0.950136 0.156218
397 2 0.949797 0.949714 0.156153
408 2 0.150021 0.0501788 0.19874
416 2 0.349802 0.0501024 0.198685
424 2 0.550234 0.049753 0.198602
432 2 0.750048 0.0502696 0.19855
440 2 0.949739 0.0497102 0.198724
406 2 0.0499615 0.149864 0.198593
414 2 0.24989 0.150272 0.198658
422 2 0.449793 0.149892 0.198538
430 2 0.649798 0.150321 0.198498
438 2 0.85023 0.150042 0.198715
448 2 0.15007 0.249939 0.19847
456 2 0.349966 0.249958 0.198743
464 2 0.549933 0.250036 0.19865
472 2 0.750149 0.249978 0.198511
480 2 0.950263 0.250205 0.198552
446 2 0.050159 0.349756 0.198502
454 2 0.249857 0.349926 0.198486
462 2 0.449983 0.350235 0.198638
470 2 0.650154 0.349699 0.198621
478 2 0.849934 0.35018 0.198486
488 2 0.149875 0.45017 0.198677
496 2 0.349841 0.449978 0.198619
504 2 0.549759 0.449648 0.198715
512 2 0.749958 0.449898 0.198666
520 2 0.950142 0.450032 0.19846
486 2 0.0500598 0.550041 0.198618
494 2 0.249754 0.550185 0.198603
502 2 0.449798 0.5502 0.198611
510 2 0.649765 0.549778 0.19872
518 2 0.849876 0.55012 0.19873
528 2 0.149953 0.649814 0.198566
536 2 0.350121 0.649929 0.198492
544 2 0.55027 0.650182 0.19854
552 2 0.750197 0.650188 0.198458
560 2 0.950267 0.649724 0.198599
526 2 0.0499118 0.750042 0.198594
534 2 0.249743 0.749832 0.198703
542 2 0.449756 0.750199 0.198738
550 2 0.650242 0.749726 0.198587
558 2 0.850105 0.749842 0.198492
568 2 0.150053 0.850186 0.198641
576 2 0.349945 0.850007 0.198697
584 2 0.550185 0.849915 0.198558
592 2 0.750174 0.84996 0.198486
600 2 0.950023 0.850164 0.198485
566 2 0.0499806 0.949812 0.19862
574 2 0.250278 0.949827 0.198531
582 2 0.450112 0.949737 0.198473
590 2 0.649944 0.949746 0.198574
598 2 0.849882 0.950143 0.198494
407 2 0.0499206 0.0502035 0.241113
402 1 0.099814 -0.000234944 0.219762
415 2 0.249731 0.0499037 0.241175
410 1 0.300117 0.000204693 0.219893
423 2 0.450078 0.0501086 0.24116
418 1 0.500232 -0.000271999 0.21986
431 2 0.649892 0.0499649 0.241185
439 2 0.850167 0.049888 0.241134
434 1 0.899715 -0.000278236 0.219759
404 1 -0.000303582 0.100116 0.219734
412 1 0.20018 0.100138 0.219961
420 1 0.400186 0.100209 0.219848
428 1 0.600086 0.100296 0.21973
436 1 0.799954 0.0999882 0.219904
442 1 0.0997782 0.200238 0.219939
405 2 0.149994 0.149968 0.241004
413 2 0.350118 0.150082 0.241051
450 1 0.300131 0.200117 0.219838
421 2 0.549747 0.150051 0.240986
458 1 0.499793 0.200077 0.219848
466 1 0.700024 0.199701 0.21981
429 2 0.750248 0.149848 0.241128
474 1 0.900065 0.199895 0.219984
437 2 0.950041 0.150029 0.241232
447 2 0.0499971 0.249893 0.241122
455 2 0.250275 0.249919 0.240976
463 2 0.449899 0.249746 0.241129
471 2 0.649766 0.249794 0.240994
479 2 0.85007 0.250142 0.24099
444 1 -3.32886e-05 0.300141 0.219775
445 2 0.149952 0.350204 0.240958
452 1 0.200084 0.300175 0.219964
453 2 0.349986 0.350128 0.241111
460 1 0.400305 0.299899 0.219753
461 2 0.549933 0.350194 0.240973
468 1 0.599737 0.300063 0.219903
469 2 0.750018 0.35025 0.241019
476 1 0.800012 0.299814 0.219868
477 2 0.949933 0.34978 0.241116
482 1 0.100108 0.399907 0.219702
490 1 0.300029 0.400137 0.21977
498 1 0.499876 0.400214 0.219966
506 1 0.699706 0.399817 0.219822
514 1 0.899899 0.40013 0.21982
487 2 0.0499089 0.449847 0.241216
484 1 2.29007e-05 0.499863 0.219916
492 1 0.199863 0.499829 0.219714
495 2 0.249699 0.449846 0.240911
500 1 0.399879 0.499972 0.219818
503 2 0.45016 0.450153 0.240934
508 1 0.599937 0.499635 0.219705
511 2 0.650197 0.450272 0.24115
519 2 0.850247 0.44999 0.24119
485 2 0.149865 0.5501 0.241179
493 2 0.350068 0.55009 0.241114
501 2 0.550093 0.54974 0.241175
509 2 0.750212 0.549852 0.240992
516 1 0.800335 0.499703 0.21975
517 2 0.949914 0.550214 0.241172
522 1 0.100117 0.600034 0.219957
530 1 0.299912 0.599977 0.219839
538 1 0.499918 0.599795 0.219897
546 1 0.700229 0.600004 0.219751
554 1 0.900149 0.600236 0.219863
524 1 6.21277e-05 0.700033 0.219897
527 2 0.0501986 0.649806 0.241184
532 1 0.199677 0.699728 0.219832
535 2 0.249753 0.650119 0.241184
540 1 0.399964 0.699977 0.219853
543 2 0.450318 0.650119 0.241087
548 1 0.599953 0.699846 0.219898
551 2 0.650272 0.649873 0.241073
556 1 0.79971 0.700283 0.219869
559 2 0.849891 0.650023 0.240941
525 2 0.149803 0.749909 0.241223
533 2 0.350111 0.750317 0.240939
541 2 0.549878 0.750051 0.241164
549 2 0.749877 0.749935 0.241096
557 2 0.949754 0.750276 0.241114
567 2 0.0501222 0.850241 0.241138
562 1 0.100054 0.799883 0.219914
575 2 0.249955 0.849854 0.241
570 1 0.299835 0.79977 0.219828
583 2 0.450359 0.849832 0.240905
578 1 0.500162 0.799864 0.219687
586 1 0.700134 0.800002 0.219792
591 2 0.649967 0.84991 0.241063
599 2 0.849857 0.850119 0.240989
594 1 0.900103 0.799848 0.219753
564 1 0.000112916 0.899957 0.219825
572 1 0.199951 0.899774 0.21984
580 1 0.400325 0.900109 0.219744
588 1 0.600065 0.900087 0.219859
596 1 0.800276 0.899912 0.21967
565 2 0.150229 0.950015 0.241157
573 2 0.350151 0.950056 0.241099
581 2 0.550045 0.949871 0.241206
426 1 0.699743 1.00003 0.219707
589 2 0.749817 0.949747 0.240979
597 2 0.950221 0.95027 0.241112
601 1 -3.71288e-05 0.000218096 0.262404
608 2 0.149783 0.0502791 0.283671
616 2 0.350043 0.050002 0.283376
617 1 0.400027 -0.000301082 0.262181
624 2 0.549834 0.0498226 0.283628
625 1 0.59996 0.000161866 0.262259
632 2 0.750035 0.0498866 0.283523
633 1 0.799845 -0.000291083 0.262366
640 2 0.95015 0.0498383 0.283681
603 1 0.100229 0.10024 0.262318
611 1 0.29973 0.10003 0.262415
619 1 0.499734 0.099738 0.2622
627 1 0.699752 0.099714 0.262391
635 1 0.900277 0.100126 0.262408
606 2 0.049866 0.149799 0.283624
649 1 0.200047 0.20015 0.262214
614 2 0.250192 0.1502 0.283468
657 1 0.400299 0.200163 0.262223
622 2 0.450169 0.150119 0.283658
665 1 0.599822 0.200268 0.262195
630 2 0.649682 0.149935 0.283405
673 1 0.800318 0.200193 0.262409
638 2 0.849994 0.149858 0.283598
641 1 0.999916 0.200014 0.262444
648 2 0.149774 0.249836 0.283698
656 2 0.350075 0.249804 0.283593
664 2 0.549744 0.250075 0.283673
672 2 0.74997 0.24979 0.283615
680 2 0.950232 0.250174 0.283572
646 2 0.0500447 0.349971 0.283654
643 1 0.100311 0.300011 0.262231
654 2 0.249824 0.349867 0.283389
651 1 0.299909 0.299941 0.262295
659 1 0.499945 0.299894 0.262191
662 2 0.449815 0.349882 0.28366
667 1 0.700134 0.299925 0.262325
670 2 0.650097 0.34973 0.283499
678 2 0.850038 0.34998 0.28345
675 1 0.900035 0.299695 0.262389
681 1 0.000114096 0.400031 0.262458
689 1 0.199969 0.399762 0.262159
697 1 0.400082 0.40006 0.262203
705 1 0.600259 0.399888 0.262413
713 1 0.800115 0.400297 0.262262
683 1 0.099995 0.499763 0.262405
688 2 0.149833 0.449996 0.283649
691 1 0.299856 0.499905 0.262254
696 2 0.350261 0.450003 0.283429
704 2 0.55015 0.449741 0.28354
712 2 0.749782 0.449863 0.283489
715 1 0.900201 0.500014 0.262276
720 2 0.949943 0.4499 0.28344
686 2 0.0497314 0.549806 0.283667
694 2 0.250159 0.549987 0.283497
699 1 0.499908 0.499881 0.262402
702 2 0.450165 0.55019 0.283417
707 1 0.70015 0.500012 0.262305
710 2 0.650074 0.550015 0.283539
718 2 0.850052 0.549878 0.283476
721 1 0.000256396 0.599984 0.262234
729 1 0.199809 0.60016 0.26227
737 1 0.400048 0.599986 0.26215
745 1 0.600021 0.600255 0.262357
753 1 0.800187 0.600143 0.262329
723 1 0.0999009 0.69998 0.262396
728 2 0.149877 0.649949 0.283626
731 1 0.300279 0.699999 0.262226
736 2 0.350165 0.650138 0.283442
739 1 0.500023 0.700316 0.262365
744 2 0.549809 0.650129 0.283484
747 1 0.699772 0.700129 0.262169
752 2 0.749933 0.650196 0.283519
755 1 0.899983 0.699708 0.262335
760 2 0.950065 0.650091 0.283484
726 2 0.049915 0.750196 0.283499
734 2 0.249802 0.749842 0.283667
742 2 0.449854 0.749809 0.283594
750 2 0.649715 0.749854 0.283576
758 2 0.849923 0.749943 0.283499
761 1 0.000171342 0.80032 0.26245
769 1 0.199931 0.799794 0.262298
768 2 0.150075 0.850141 0.283456
776 2 0.350111 0.850132 0.2836
777 1 0.400219 0.800241 0.262281
784 2 0.550223 0.850151 0.283701
785 1 0.599947 0.800094 0.262321
792 2 0.750068 0.849846 0.283591
793 1 0.800055 0.799991 0.262236
800 2 0.949732 0.850196 0.28356
763 1 0.100186 0.900249 0.262421
771 1 0.300097 0.900252 0.262223
779 1 0.5003 0.899897 0.262247
787 1 0.699982 0.899709 0.262386
795 1 0.89974 0.899773 0.262188
766 2 0.0501569 0.950003 0.283671
609 1 0.199751 0.999997 0.262461
774 2 0.249849 0.949943 0.283693
782 2 0.450293 0.949975 0.28356
790 2 0.649691 0.949797 0.283588
798 2 0.850088 0.949852 0.283582
602 1 0.0998572 -0.000117019 0.304668
610 1 0.30002 8.09897e-05 0.304691
634 1 0.89978 0.000257498 0.304935
604 1 -9.24762e-05 0.0999764 0.304669
612 1 0.200056 0.0998124 0.304868
620 1 0.399864 0.10009 0.304765
628 1 0.600082 0.0997284 0.304896
636 1 0.800135 0.0998934 0.304723
642 1 0.099799 0.199878 0.30481
650 1 0.299741 0.200006 0.304885
658 1 0.499949 0.200116 0.304674
666 1 0.700058 0.200093 0.304825
674 1 0.900283 0.200033 0.304637
652 1 0.200189 0.300061 0.304639
660 1 0.399791 0.300089 0.304748
668 1 0.599726 0.300194 0.304716
676 1 0.799719 0.30021 0.304726
644 1 1.00024 0.3 0.30472
682 1 0.100022 0.400154 0.304953
690 1 0.300094 0.400198 0.304786
698 1 0.499906 0.399912 0.304876
706 1 0.69986 0.399971 0.304798
714 1 0.899908 0.399951 0.304731
692 1 0.200156 0.500032 0.304867
700 1 0.400164 0.500221 0.304692
708 1 0.600161 0.500133 0.304913
684 1 -0.000342731 0.500008 0.304811
716 1 0.800161 0.499809 0.304829
722 1 0.0996883 0.600006 0.304863
730 1 0.299975 0.599792 0.304773
738 1 0.499807 0.600187 0.304646
746 1 0.700128 0.600287 0.304871
754 1 0.900018 0.599735 0.304858
732 1 0.200049 0.700008 0.304848
740 1 0.400176 0.700045 0.304762
748 1 0.600096 0.700062 0.304879
756 1 0.799793 0.700151 0.304706
724 1 0.999736 0.700103 0.304733
762 1 0.100226 0.799838 0.304907
770 1 0.300055 0.800004 0.304702
778 1 0.500242 0.799665 0.304657
786 1 0.699807 0.799809 0.304717
794 1 0.899658 0.800016 0.304785
764 1 -8.85183e-05 0.899966 0.304868
772 1 0.199687 0.900132 0.304815
780 1 0.399951 0.89981 0.304931
788 1 0.599796 0.900283 0.304936
796 1 0.800078 0.900257 0.304632
618 1 0.500262 1.00015 0.304705
626 1 0.699987 0.99991 0.304781
607 2 0.0501641 0.0498775 0.325984
801 1 -0.000227755 1.09531e-05 0.347145
809 1 0.19971 -0.000260627 0.34712
615 2 0.249985 0.0498885 0.326086
817 1 0.399772 -4.76332e-05 0.347307
623 2 0.449812 0.0498588 0.325984
631 2 0.650142 0.0502422 0.326128
639 2 0.849882 0.0503312 0.326148
803 1 0.100069 0.100146 0.347244
811 1 0.300231 0.0997261 0.347098
819 1 0.499754 0.09987 0.347225
827 1 0.700161 0.100136 0.347196
835 1 0.899945 0.100004 0.347209
605 2 0.149723 0.149812 0.325904
849 1 0.199676 0.199797 0.347388
613 2 0.349845 0.150032 0.326013
857 1 0.399961 0.200126 0.347188
621 2 0.54971 0.150048 0.325975
865 1 0.599932 0.200071 0.347195
629 2 0.749959 0.149811 0.326076
873 1 0.800104 0.199937 0.347115
637 2 0.949775 0.150211 0.326031
841 1 1 0.199978 0.347353
647 2 0.049934 0.249868 0.32593
655 2 0.249941 0.250023 0.326042
663 2 0.450169 0.24977 0.325885
671 2 0.649979 0.250068 0.326116
679 2 0.850054 0.249931 0.325892
843 1 0.0998666 0.300254 0.347187
645 2 0.150094 0.34988 0.325954
653 2 0.349781 0.35013 0.326043
851 1 0.300093 0.299892 0.347404
859 1 0.50025 0.299738 0.347342
661 2 0.550161 0.350298 0.325919
867 1 0.69973 0.299825 0.347276
669 2 0.749849 0.349769 0.326141
875 1 0.899902 0.300221 0.347375
677 2 0.950051 0.350137 0.32596
881 1 0.000249271 0.400066 0.347182
889 1 0.199797 0.400248 0.347129
897 1 0.399774 0.399852 0.347131
905 1 0.600175 0.400283 0.347172
913 1 0.800228 0.399808 0.347244
687 2 0.0498756 0.450253 0.325917
695 2 0.250271 0.449952 0.32605
891 1 0.299881 0.50019 0.34735
703 2 0.450165 0.450137 0.326166
711 2 0.649894 0.450271 0.326048
719 2 0.850162 0.450113 0.326163
915 1 0.899776 0.499991 0.34716
883 1 0.0998867 0.49973 0.347366
685 2 0.15021 0.549838 0.325914
693 2 0.35011 0.549757 0.32592
701 2 0.549888 0.550064 0.326143
899 1 0.500255 0.499937 0.347389
907 1 0.700046 0.499852 0.347371
709 2 0.749884 0.549846 0.326042
717 2 0.950041 0.550064 0.326114
929 1 0.200252 0.59996 0.347208
937 1 0.400079 0.599675 0.347275
945 1 0.599823 0.599921 0.347431
953 1 0.800163 0.599782 0.347192
921 1 1.00015 0.600048 0.34739
727 2 0.0497453 0.650299 0.325963
923 1 0.0997132 0.700113 0.347111
735 2 0.250017 0.650042 0.325918
931 1 0.299978 0.700127 0.347383
743 2 0.45018 0.6502 0.326034
939 1 0.499877 0.700093 0.347167
751 2 0.649768 0.649982 0.326199
947 1 0.700029 0.699824 0.347414
759 2 0.849918 0.649986 0.325911
955 1 0.899804 0.699839 0.34734
725 2 0.150065 0.749948 0.326079
733 2 0.350152 0.749862 0.326149
741 2 0.550083 0.750076 0.32616
749 2 0.749714 0.749915 0.326096
757 2 0.949729 0.750038 0.326068
767 2 0.0499153 0.849706 0.325948
961 1 -5.09847e-05 0.799931 0.347331
969 1 0.199882 0.800283 0.347314
775 2 0.249841 0.850295 0.325944
977 1 0.399833 0.800046 0.34739
783 2 0.450191 0.84971 0.325983
985 1 0.600088 0.799947 0.347233
791 2 0.650089 0.850155 0.326061
799 2 0.849689 0.850188 0.325964
993 1 0.799803 0.799848 0.3473
963 1 0.099728 0.899801 0.347378
971 1 0.300113 0.899887 0.347364
979 1 0.50019 0.899833 0.347244
987 1 0.699948 0.899831 0.347253
995 1 0.899897 0.899824 0.347123
765 2 0.15005 0.949759 0.326005
773 2 0.349709 0.949786 0.325953
781 2 0.550202 0.950107 0.325969
825 1 0.599997 0.999899 0.347317
789 2 0.749932 0.949799 0.325949
833 1 0.800135 1.00015 0.347177
797 2 0.95014 0.950196 0.326117
802 1 0.10011 0.000232488 0.389845
808 2 0.149949 0.0499093 0.368516
816 2 0.349877 0.0500292 0.368408
810 1 0.300095 -0.000248916 0.389716
824 2 0.549928 0.0498233 0.368426
832 2 0.749728 0.0497985 0.368435
840 2 0.950026 0.050008 0.368384
812 1 0.199782 0.100071 0.389729
820 1 0.400065 0.099853 0.389818
828 1 0.600111 0.099965 0.389758
836 1 0.799635 0.100017 0.389564
804 1 1.00011 0.0997382 0.389785
806 2 0.0499469 0.149995 0.368555
842 1 0.100206 0.200149 0.389734
814 2 0.249798 0.149685 0.368349
850 1 0.299725 0.199922 0.389617
822 2 0.449789 0.149769 0.368594
858 1 0.500194 0.200261 0.389846
830 2 0.64978 0.149915 0.368415
866 1 0.699774 0.200203 0.389638
838 2 0.849727 0.150033 0.368361
874 1 0.900229 0.199766 0.389674
848 2 0.150005 0.250299 0.368554
856 2 0.349805 0.250069 0.368528
864 2 0.549922 0.249819 0.368385
872 2 0.749997 0.24984 0.368347
880 2 0.950259 0.250029 0.368503
846 2 0.0502319 0.350293 0.368375
852 1 0.200092 0.300013 0.38972
854 2 0.250001 0.350232 0.368463
860 1 0.399789 0.299799 0.389823
862 2 0.449737 0.34971 0.368613
868 1 0.599866 0.30007 0.389803
870 2 0.649947 0.349731 0.368477
878 2 0.849973 0.350104 0.368566
876 1 0.800206 0.299894 0.389654
844 1 0.999886 0.299833 0.38972
882 1 0.100008 0.400112 0.389895
890 1 0.300032 0.399995 0.389805
898 1 0.500006 0.399874 0.389833
906 1 0.69969 0.400066 0.389663
914 1 0.8998 0.399774 0.389755
888 2 0.150107 0.450256 0.368567
896 2 0.349855 0.449933 0.368586
904 2 0.549834 0.450148 0.368515
912 2 0.750267 0.44989 0.368596
920 2 0.949923 0.450213 0.368478
886 2 0.0499396 0.550107 0.368421
892 1 0.200139 0.500203 0.389681
894 2 0.250171 0.549975 0.368368
900 1 0.399729 0.500293 0.389864
902 2 0.450259 0.54979 0.368562
908 1 0.600161 0.499805 0.389675
910 2 0.650019 0.550207 0.368365
918 2 0.850107 0.549939 0.368542
916 1 0.800285 0.499947 0.389742
884 1 1.00009 0.499744 0.389816
922 1 0.0998189 0.600287 0.389749
930 1 0.300063 0.599693 0.389797
938 1 0.499743 0.599758 0.389797
946 1 0.7 0.60008 0.389846
954 1 0.900196 0.599806 0.389719
928 2 0.149961 0.650161 0.368344
932 1 0.200146 0.699915 0.389728
936 2 0.350008 0.649708 0.368431
940 1 0.400047 0.700147 0.389824
944 2 0.55001 0.650203 0.368635
948 1 0.600222 0.700307 0.389841
952 2 0.749899 0.649998 0.368412
956 1 0.79986 0.700039 0.389625
960 2 0.949994 0.649767 0.368412
924 1 0.999811 0.699932 0.38986
926 2 0.0500647 0.750063 0.368416
934 2 0.250189 0.750155 0.368531
942 2 0.450239 0.75024 0.368386
950 2 0.649797 0.750215 0.368433
958 2 0.849722 0.750113 0.368571
962 1 0.0997691 0.79974 0.389698
968 2 0.150069 0.850231 0.368465
976 2 0.349971 0.850095 0.368638
970 1 0.300082 0.800215 0.389804
984 2 0.549878 0.850191 0.368552
978 1 0.499961 0.799856 0.389875
986 1 0.699932 0.800029 0.389621
992 2 0.749949 0.850091 0.368534
994 1 0.899734 0.800194 0.38972
1000 2 0.949899 0.85023 0.368545
972 1 0.199929 0.900281 0.389642
980 1 0.399967 0.89983 0.389661
988 1 0.600101 0.900342 0.38965
996 1 0.800147 0.899898 0.38964
964 1 1.00006 0.900016 0.389786
966 2 0.0501443 0.950164 0.368514
974 2 0.250101 0.950151 0.368498
982 2 0.450069 0.950199 0.368626
818 1 0.500074 1.00017 0.389883
990 2 0.650208 0.950289 0.368353
826 1 0.700027 1.00009 0.389703
998 2 0.850188 0.949927 0.368595
834 1 0.899836 1.00014 0.389773
807 2 0.0499652 0.0496969 0.410983
815 2 0.250127 0.0497914 0.410993
823 2 0.449786 0.0499479 0.411018
831 2 0.649861 0.0501941 0.411104
839 2 0.849925 0.050125 0.410898
805 2 0.150078 0.149829 0.41104
813 2 0.34991 0.150116 0.410986
821 2 0.549921 0.149857 0.410847
829 2 0.749692 0.149898 0.411003
837 2 0.949973 0.150168 0.411044
847 2 0.0497945 0.249992 0.411082
855 2 0.250227 0.24997 0.411108
863 2 0.450091 0.2502 0.411056
871 2 0.650212 0.249911 0.41102
879 2 0.849883 0.250045 0.410865
845 2 0.150033 0.349773 0.411002
853 2 0.350033 0.349916 0.410904