ITEM: TIMESTEP
300
ITEM: NUMBER OF ATOMS
1250
ITEM: BOX BOUNDS pp pp pp
0.0000000000000000e+00 3.1500000000000000e+01
0.0000000000000000e+00 3.1500000000000000e+01
-1.2600000000000000e+01 5.0399999999999999e+01
ITEM: ATOMS id type xs ys zs
1 1 0 0 0
8 2 0.15 0.05 0.025
9 1 0.2 0 0
16 2 0.35 0.05 0.025
17 1 0.4 0 0
24 2 0.55 0.05 0.025
25 1 0.6 0 0
32 2 0.75 0.05 0.025
33 1 0.8 0 0
40 2 0.95 0.05 0.025
6 2 0.05 0.15 0.025
3 1 0.1 0.1 0
11 1 0.3 0.1 0
14 2 0.25 0.15 0.025
22 2 0.45 0.15 0.025
19 1 0.5 0.1 0
30 2 0.65 0.15 0.025
27 1 0.7 0.1 0
35 1 0.9 0.1 0
38 2 0.85 0.15 0.025
41 1 0 0.2 0
49 1 0.2 0.2 0
57 1 0.4 0.2 0
65 1 0.6 0.2 0
73 1 0.8 0.2 0
43 1 0.1 0.3 0
48 2 0.15 0.25 0.025
51 1 0.3 0.3 0
56 2 0.35 0.25 0.025
59 1 0.5 0.3 0
64 2 0.55 0.25 0.025
67 1 0.7 0.3 0
72 2 0.75 0.25 0.025
75 1 0.9 0.3 0
80 2 0.95 0.25 0.025
46 2 0.05 0.35 0.025
81 1 0 0.4 0
89 1 0.2 0.4 0
54 2 0.25 0.35 0.025
97 1 0.4 0.4 0
62 2 0.45 0.35 0.025
70 2 0.65 0.35 0.025
105 1 0.6 0.4 0
113 1 0.8 0.4 0
78 2 0.85 0.35 0.025
88 2 0.15 0.45 0.025
96 2 0.35 0.45 0.025
104 2 0.55 0.45 0.025
112 2 0.75 0.45 0.025
120 2 0.95 0.45 0.025
86 2 0.05 0.55 0.025
83 1 0.1 0.5 0
91 1 0.3 0.5 0
94 2 0.25 0.55 0.025
102 2 0.45 0.55 0.025
99 1 0.5 0.5 0
110 2 0.65 0.55 0.025
107 1 0.7 0.5 0
115 1 0.9 0.5 0
118 2 0.85 0.55 0.025
121 1 0 0.6 0
128 2 0.15 0.65 0.025
129 1 0.2 0.6 0
136 2 0.35 0.65 0.025
137 1 0.4 0.6 0
144 2 0.55 0.65 0.025
145 1 0.6 0.6 0
152 2 0.75 0.65 0.025
153 1 0.8 0.6 0
160 2 0.95 0.65 0.025
123 1 0.1 0.7 0
131 1 0.3 0.7 0
139 1 0.5 0.7 0
147 1 0.7 0.7 0
155 1 0.9 0.7 0
126 2 0.05 0.75 0.025
161 1 0 0.8 0
169 1 0.2 0.8 0
134 2 0.25 0.75 0.025
177 1 0.4 0.8 0
142 2 0.45 0.75 0.025
150 2 0.65 0.75 0.025
185 1 0.6 0.8 0
193 1 0.8 0.8 0
158 2 0.85 0.75 0.025
163 1 0.1 0.9 0
168 2 0.15 0.85 0.025
171 1 0.3 0.9 0
176 2 0.35 0.85 0.025
179 1 0.5 0.9 0
184 2 0.55 0.85 0.025
187 1 0.7 0.9 0
192 2 0.75 0.85 0.025
195 1 0.9 0.9 0
200 2 0.95 0.85 0.025
166 2 0.05 0.95 0.025
174 2 0.25 0.95 0.025
182 2 0.45 0.95 0.025
190 2 0.65 0.95 0.025
198 2 0.85 0.95 0.025
7 2 0.0500229 0.0501706 0.079825
2 1 0.1 0 0.05
10 1 0.3 0 0.05
15 2 0.249885 0.0500076 0.0798931
23 2 0.450104 0.0500572 0.0799054
18 1 0.5 0 0.05
31 2 0.650072 0.0500003 0.0798268
26 1 0.7 0 0.05
34 1 0.9 0 0.05
39 2 0.850138 0.0500443 0.0798393
4 1 0 0.1 0.05
5 2 0.149875 0.150049 0.0797515
12 1 0.2 0.1 0.05
13 2 0.349926 0.150084 0.0799102
20 1 0.4 0.1 0.05
21 2 0.550066 0.150112 0.0797507
28 1 0.6 0.1 0.05
29 2 0.750175 0.149889 0.0797675
36 1 0.8 0.1 0.05
37 2 0.950079 0.149829 0.0799053
42 1 0.1 0.2 0.05
50 1 0.3 0.2 0.05
55 2 0.249938 0.250145 0.0799082
58 1 0.5 0.2 0.05
66 1 0.7 0.2 0.05
74 1 0.9 0.2 0.05
79 2 0.849874 0.250164 0.0797865
44 1 0 0.3 0.05
47 2 0.0498435 0.250133 0.0797168
52 1 0.2 0.3 0.05
60 1 0.4 0.3 0.05
63 2 0.449953 0.249899 0.0798495
68 1 0.6 0.3 0.05
71 2 0.650179 0.249804 0.079806
76 1 0.8 0.3 0.05
45 2 0.149788 0.35016 0.0797646
82 1 0.1 0.4 0.05
90 1 0.3 0.4 0.05
53 2 0.349915 0.349989 0.0797597
61 2 0.550192 0.349989 0.0798199
98 1 0.5 0.4 0.05
106 1 0.7 0.4 0.05
69 2 0.750056 0.349807 0.0798051
114 1 0.9 0.4 0.05
77 2 0.949987 0.350111 0.0798774
87 2 0.0498471 0.449856 0.0797982
95 2 0.250137 0.450079 0.0798668
103 2 0.449921 0.450007 0.0797379
111 2 0.650067 0.449785 0.0798283
119 2 0.850042 0.449768 0.07976
84 1 0 0.5 0.05
85 2 0.149807 0.549946 0.0798105
92 1 0.2 0.5 0.05
93 2 0.349951 0.550138 0.0798572
100 1 0.4 0.5 0.05
101 2 0.550069 0.550208 0.0799039
108 1 0.6 0.5 0.05
109 2 0.750169 0.549836 0.079889
116 1 0.8 0.5 0.05
117 2 0.950017 0.55019 0.0797791
127 2 0.0502046 0.650149 0.0797378
122 1 0.1 0.6 0.05
130 1 0.3 0.6 0.05
135 2 0.249883 0.649935 0.0798619
143 2 0.450032 0.65017 0.0797622
138 1 0.5 0.6 0.05
151 2 0.649852 0.650034 0.0797435
146 1 0.7 0.6 0.05
154 1 0.9 0.6 0.05
159 2 0.850042 0.650108 0.0798829
124 1 0 0.7 0.05
132 1 0.2 0.7 0.05
140 1 0.4 0.7 0.05
133 2 0.350033 0.749877 0.0797738
148 1 0.6 0.7 0.05
156 1 0.8 0.7 0.05
125 2 0.150233 0.750039 0.0799075
162 1 0.1 0.8 0.05
170 1 0.3 0.8 0.05
141 2 0.54987 0.750127 0.0798985
178 1 0.5 0.8 0.05
186 1 0.7 0.8 0.05
149 2 0.749949 0.750035 0.0798038
194 1 0.9 0.8 0.05
157 2 0.950015 0.75014 0.0798172
164 1 0 0.9 0.05
167 2 0.0499858 0.850199 0.0797444
172 1 0.2 0.9 0.05
175 2 0.250154 0.849994 0.0798811
180 1 0.4 0.9 0.05
183 2 0.450134 0.850184 0.0797903
188 1 0.6 0.9 0.05
191 2 0.650116 0.849794 0.0798988
196 1 0.8 0.9 0.05
199 2 0.850169 0.849976 0.0798826
165 2 0.149785 0.949911 0.0799065
173 2 0.349984 0.949957 0.0798831
181 2 0.549806 0.949918 0.0798002
189 2 0.750155 0.950039 0.0797537
197 2 0.949845 0.94991 0.0797791
217 1 0.399827 0.00020531 0.109572
233 1 0.800174 -6.91056e-05 0.109434
201 1 1.00005 0.000113449 0.109578
203 1 0.100168 0.100055 0.109445
211 1 0.300017 0.100084 0.109549
219 1 0.500147 0.100222 0.109433
227 1 0.700072 0.100137 0.109446
235 1 0.900104 0.100023 0.109462
241 1 2.39082e-05 0.200119 0.109531
249 1 0.200178 0.199814 0.109513
257 1 0.400078 0.200026 0.109614
265 1 0.599927 0.200159 0.109562
273 1 0.799879 0.200137 0.109455
243 1 0.0998957 0.299792 0.109577
251 1 0.299882 0.299938 0.10944
259 1 0.500011 0.299831 0.109492
267 1 0.700175 0.299933 0.109554
275 1 0.900093 0.300113 0.10958
289 1 0.200012 0.399967 0.109557
297 1 0.400096 0.400031 0.109442
305 1 0.600074 0.399775 0.10965
313 1 0.800065 0.399971 0.10961
281 1 1 0.399805 0.109494
283 1 0.100016 0.500127 0.109443
299 1 0.500173 0.500161 0.109615
307 1 0.7001 0.500124 0.109511
291 1 0.299801 0.499996 0.10957
315 1 0.899895 0.499799 0.109555
321 1 -8.0941e-05 0.600239 0.109559
329 1 0.199837 0.599887 0.10956
337 1 0.400152 0.600134 0.109644
345 1 0.60023 0.59981 0.109537
353 1 0.799801 0.599959 0.109495
323 1 0.100021 0.700006 0.109459
331 1 0.300097 0.699947 0.109436
339 1 0.499819 0.700225 0.109629
347 1 0.700164 0.699902 0.109623
355 1 0.899948 0.700026 0.109567
361 1 0.000106517 0.800065 0.109535
369 1 0.200249 0.800205 0.109524
377 1 0.399853 0.800136 0.109546
385 1 0.599937 0.800086 0.109634
393 1 0.799847 0.799983 0.109587
363 1 0.0998966 0.899786 0.109484
371 1 0.300022 0.899994 0.109653
379 1 0.499987 0.899805 0.109587
387 1 0.700166 0.900029 0.109489
395 1 0.899877 0.899847 0.109547
209 1 0.19999 0.999843 0.109525
225 1 0.599778 0.999854 0.109516
208 2 0.149824 0.0501355 0.139185
216 2 0.349989 0.0501734 0.139214
224 2 0.549811 0.0501471 0.139369
232 2 0.750054 0.0501105 0.139267
240 2 0.950016 0.0501472 0.139206
206 2 0.0501431 0.150053 0.139221
214 2 0.250016 0.150125 0.139281
222 2 0.449923 0.14989 0.139181
230 2 0.65007 0.149951 0.139195
238 2 0.849804 0.149909 0.139358
256 2 0.350049 0.249985 0.139268
272 2 0.750081 0.249821 0.139264
248 2 0.149894 0.250125 0.139206
264 2 0.54999 0.250013 0.139279
280 2 0.94998 0.24981 0.139207
246 2 0.0501925 0.349853 0.139216
254 2 0.249891 0.350073 0.139194
262 2 0.449891 0.350019 0.139352
270 2 0.650137 0.35014 0.139294
278 2 0.849941 0.350178 0.139211
288 2 0.15013 0.449879 0.139338
296 2 0.349974 0.449993 0.139378
304 2 0.55 0.44996 0.13925
312 2 0.750121 0.450014 0.139233
320 2 0.94991 0.450102 0.139324
286 2 0.0499905 0.549899 0.139188
294 2 0.249824 0.549978 0.139182
302 2 0.450128 0.550158 0.139333
310 2 0.649934 0.550027 0.139218
318 2 0.849914 0.550096 0.139157
328 2 0.150045 0.650149 0.139249
336 2 0.349928 0.650115 0.139368
344 2 0.549957 0.649819 0.139219
352 2 0.749905 0.649938 0.139253
360 2 0.949776 0.650083 0.139248
326 2 0.0498332 0.749912 0.139186
334 2 0.25014 0.75013 0.139301
342 2 0.450102 0.750096 0.139396
350 2 0.650204 0.749989 0.139365
358 2 0.850176 0.750055 0.139191
368 2 0.150046 0.849947 0.139197
376 2 0.349848 0.850096 0.13935
384 2 0.55022 0.850217 0.139235
392 2 0.750051 0.850171 0.139374
400 2 0.95014 0.849866 0.139362
366 2 0.0500326 0.950178 0.139234
374 2 0.249804 0.949823 0.139265
382 2 0.450031 0.950202 0.139169
390 2 0.649802 0.94995 0.139218
398 2 0.850129 0.950089 0.13925
207 2 0.0500566 0.0499872 0.198672
202 1 0.100056 5.54351e-05 0.169064
215 2 0.250055 0.0498641 0.198678
218 1 0.499894 3.35878e-06 0.168972
223 2 0.45018 0.0498005 0.198693
231 2 0.649938 0.0500699 0.198749
226 1 0.699945 -0.000148229 0.168927
234 1 0.900227 -0.000209647 0.168928
239 2 0.850018 0.0498261 0.198611
204 1 -0.000154077 0.100017 0.168987
205 2 0.150142 0.150049 0.198762
212 1 0.199939 0.100117 0.169093
220 1 0.399952 0.0997846 0.168916
213 2 0.350118 0.149916 0.198819
221 2 0.549779 0.150091 0.198794
228 1 0.599885 0.100096 0.169016
229 2 0.75 0.149881 0.198667
236 1 0.799912 0.0999152 0.16896
237 2 0.949828 0.149802 0.198768
242 1 0.100225 0.199937 0.169017
250 1 0.300097 0.199944 0.169112
255 2 0.249938 0.249862 0.198784
258 1 0.49983 0.199995 0.169003
263 2 0.44989 0.249957 0.198695
266 1 0.700051 0.200017 0.168891
274 1 0.899774 0.199905 0.169042
247 2 0.0501682 0.250043 0.198767
252 1 0.200014 0.300191 0.16896
260 1 0.400198 0.299796 0.169097
268 1 0.59999 0.300152 0.169025
271 2 0.650185 0.249829 0.19875
276 1 0.800037 0.300128 0.169027
279 2 0.849826 0.250043 0.198656
244 1 0.999992 0.299883 0.168915
282 1 0.100089 0.399835 0.16907
245 2 0.14989 0.350151 0.198664
290 1 0.29987 0.399767 0.169068
253 2 0.350192 0.34985 0.198822
298 1 0.500052 0.399896 0.169079
261 2 0.550027 0.349911 0.198699
306 1 0.700046 0.399823 0.168973
269 2 0.750057 0.350022 0.198643
314 1 0.899876 0.399944 0.169015
277 2 0.950041 0.349982 0.198705
287 2 0.0500348 0.450004 0.198737
292 1 0.200156 0.499806 0.168962
295 2 0.249802 0.450178 0.198834
300 1 0.400112 0.500218 0.168984
303 2 0.450103 0.450038 0.198714
311 2 0.649865 0.449966 0.19867
316 1 0.799961 0.500128 0.16894
319 2 0.849907 0.450024 0.198772
284 1 0.999987 0.499913 0.168977
285 2 0.149842 0.549947 0.198833
293 2 0.3502 0.550187 0.198682
301 2 0.549977 0.549982 0.198778
308 1 0.600055 0.499927 0.168975
309 2 0.749952 0.549881 0.198827
317 2 0.950208 0.54981 0.198787
327 2 0.0499874 0.650007 0.198644
322 1 0.100146 0.600047 0.169087
330 1 0.300059 0.600185 0.168987
335 2 0.250104 0.649805 0.198833
343 2 0.45014 0.649875 0.198633
338 1 0.500157 0.599886 0.168913
351 2 0.64982 0.650111 0.198778
346 1 0.700056 0.600185 0.168954
354 1 0.899819 0.599737 0.169098
359 2 0.850105 0.649857 0.198736
325 2 0.150088 0.750115 0.198657
332 1 0.200151 0.70004 0.169037
340 1 0.399866 0.699805 0.169036
333 2 0.350064 0.749773 0.198732
341 2 0.550026 0.749858 0.198779
348 1 0.599988 0.699824 0.169013
356 1 0.800166 0.700089 0.169101
324 1 1.00022 0.69985 0.168969
357 2 0.950139 0.74984 0.198627
362 1 0.100078 0.800095 0.169
370 1 0.299955 0.799934 0.169051
378 1 0.500111 0.800076 0.169106
386 1 0.700243 0.799965 0.169098
349 2 0.750143 0.7501 0.198841
394 1 0.899884 0.799804 0.169027
364 1 0.000150837 0.899986 0.16897
367 2 0.0501527 0.849829 0.198675
372 1 0.199791 0.899982 0.169087
375 2 0.249823 0.849842 0.19866
380 1 0.400222 0.900002 0.169021
383 2 0.449906 0.849984 0.198724
388 1 0.600246 0.900006 0.169004
391 2 0.650228 0.850057 0.198804
396 1 0.800109 0.89986 0.169118
399 2 0.850231 0.849833 0.198857
365 2 0.150042 0.949962 0.198697
210 1 0.299826 1.00015 0.169005
373 2 0.349844 0.950086 0.198729
381 2 0.549937 0.94988 0.198658
389 2 0.749802 0.950106 0.198804
397 2 0.949835 0.949792 0.198759
401 1 -0.000128315 -5.09366e-05 0.228515
409 1 0.199892 1.86319e-05 0.228545
425 1 0.599868 6.92519e-05 0.228394
403 1 0.100023 0.100069 0.228561
411 1 0.299757 0.0999064 0.228559
419 1 0.50008 0.0999543 0.228505
427 1 0.699778 0.100172 0.228413
435 1 0.899853 0.0998378 0.228469
441 1 -0.00016135 0.199783 0.228422
449 1 0.19998 0.199965 0.228549
457 1 0.399956 0.200227 0.228579
465 1 0.599762 0.200201 0.228552
473 1 0.799983 0.200082 0.228392
443 1 0.0999125 0.300088 0.228491
451 1 0.300026 0.299771 0.228491
459 1 0.499969 0.30001 0.228384
467 1 0.699991 0.299809 0.228505
475 1 0.899962 0.299825 0.228493
489 1 0.199755 0.399876 0.228552
497 1 0.39995 0.400199 0.228566
505 1 0.600015 0.400013 0.228499
513 1 0.800004 0.399948 0.228383
481 1 1.0002 0.399956 0.228408
515 1 0.899838 0.499857 0.228509
483 1 0.0998398 0.500167 0.228555
491 1 0.300041 0.500026 0.228459
499 1 0.500214 0.49987 0.228528
507 1 0.699808 0.500092 0.22838
529 1 0.200002 0.599921 0.228564
537 1 0.399858 0.599985 0.228399
545 1 0.600064 0.599875 0.228366
553 1 0.799945 0.60007 0.228461
521 1 1.00021 0.599822 0.228436
523 1 0.100218 0.700173 0.228422
531 1 0.299828 0.699787 0.228547
539 1 0.500153 0.700208 0.228534
547 1 0.699958 0.700172 0.228414
555 1 0.900165 0.700111 0.228397
561 1 0.000201065 0.800025 0.228367
569 1 0.199927 0.799886 0.228549
577 1 0.400115 0.800031 0.22846
585 1 0.600081 0.800177 0.228551
593 1 0.800244 0.800154 0.228541
563 1 0.10021 0.899823 0.228467
571 1 0.299803 0.899885 0.22842
579 1 0.500044 0.899861 0.228384
587 1 0.700038 0.900029 0.22857
595 1 0.900165 0.900211 0.228568
417 1 0.399876 0.999877 0.22855
433 1 0.799804 1.00014 0.228401
408 2 0.150018 0.0501293 0.258295
402 1 0.0998586 -0.000178469 0.287875
410 1 0.300091 0.000158586 0.287968
416 2 0.349847 0.0500649 0.258258
424 2 0.55017 0.0498137 0.258201
432 2 0.750052 0.0501888 0.258166
426 1 0.699811 2.31428e-05 0.287839
434 1 0.89979 -0.000201566 0.287873
440 2 0.949823 0.0497911 0.258287
406 2 0.0499769 0.149893 0.258194
404 1 -0.000216744 0.10009 0.287858
412 1 0.200133 0.100097 0.288017
414 2 0.249916 0.150197 0.258238
420 1 0.400147 0.100165 0.287937
422 2 0.449843 0.14991 0.258158
430 2 0.649859 0.150227 0.25813
428 1 0.600063 0.100223 0.287855
436 1 0.799945 0.099993 0.287977
438 2 0.850178 0.150033 0.258281
442 1 0.0998328 0.200186 0.288005
450 1 0.300092 0.200094 0.287932
458 1 0.499859 0.200061 0.287941
466 1 0.700009 0.199777 0.287912
474 1 0.90003 0.199908 0.288034
444 1 -3.92512e-05 0.300109 0.287888
448 2 0.150053 0.249943 0.258105
452 1 0.200065 0.300138 0.288022
456 2 0.34997 0.249964 0.258299
460 1 0.400232 0.299922 0.28787
464 2 0.549968 0.250015 0.258233
468 1 0.599805 0.300048 0.287977
472 2 0.750113 0.249994 0.258136
476 1 0.800009 0.299845 0.287955
480 2 0.950196 0.250165 0.258166
446 2 0.0501191 0.349816 0.258132
482 1 0.100094 0.399927 0.287836
454 2 0.249888 0.349947 0.258121
490 1 0.300036 0.40011 0.287885
462 2 0.449978 0.350164 0.258227
498 1 0.499912 0.400164 0.28802
470 2 0.650125 0.349787 0.258215
506 1 0.699785 0.399858 0.28792
478 2 0.849955 0.35014 0.25812
514 1 0.899913 0.400099 0.287921
488 2 0.149924 0.450125 0.258255
496 2 0.349885 0.449975 0.258213
504 2 0.549819 0.449751 0.258282
508 1 0.599964 0.499745 0.287836
512 2 0.74998 0.449931 0.258249
520 2 0.950103 0.450032 0.258103
486 2 0.0500418 0.550029 0.258207
492 1 0.199907 0.499858 0.287844
494 2 0.249817 0.550147 0.258201
500 1 0.399915 0.499975 0.287918
502 2 0.449855 0.550158 0.258209
510 2 0.649827 0.549835 0.258285
516 1 0.800244 0.499786 0.287869
518 2 0.8499 0.550082 0.258291
484 1 1.00002 0.499889 0.287984
528 2 0.149969 0.649868 0.258177
522 1 0.10009 0.60003 0.288015
530 1 0.299939 0.599973 0.287931
536 2 0.350094 0.649952 0.258123
544 2 0.550202 0.650151 0.258159
538 1 0.499919 0.599841 0.287972
546 1 0.700162 0.600009 0.287873
552 2 0.750151 0.650126 0.258102
554 1 0.900115 0.600177 0.287948
560 2 0.950183 0.649793 0.258202
532 1 0.199777 0.699799 0.287924
540 1 0.399972 0.699983 0.287943
550 2 0.650185 0.749791 0.258189
548 1 0.599951 0.699882 0.287971
556 1 0.799777 0.700208 0.287955
524 1 1.00005 0.700027 0.28797
526 2 0.0499255 0.750032 0.258196
562 1 0.100043 0.799902 0.287983
534 2 0.249822 0.749892 0.258271
570 1 0.299884 0.79983 0.287927
542 2 0.449815 0.750149 0.258297
578 1 0.500112 0.799901 0.287827
586 1 0.700095 0.800005 0.287902
558 2 0.850075 0.749884 0.258124
594 1 0.900089 0.799869 0.287875
564 1 8.46402e-05 0.899964 0.28792
568 2 0.150038 0.850155 0.258227
572 1 0.199953 0.899825 0.287933
576 2 0.34996 0.850006 0.258268
580 1 0.400237 0.900089 0.287865
584 2 0.550134 0.84993 0.258171
588 1 0.600051 0.900072 0.287944
592 2 0.750119 0.849968 0.25812
596 1 0.800213 0.899929 0.287815
600 2 0.950004 0.850126 0.25812
566 2 0.0499849 0.949876 0.258217
574 2 0.250212 0.949871 0.25815
582 2 0.45007 0.949807 0.258113
418 1 0.500174 0.999805 0.287946
590 2 0.649971 0.949804 0.258183
598 2 0.849922 0.950102 0.258129
407 2 0.0499418 0.05014 0.31769
415 2 0.249806 0.0499314 0.317729
423 2 0.450062 0.0500991 0.317726
431 2 0.64993 0.0499703 0.317742
439 2 0.850126 0.0499215 0.3177
405 2 0.149993 0.14996 0.317612
413 2 0.350084 0.150056 0.317644
421 2 0.549824 0.150037 0.317602
429 2 0.750185 0.149892 0.317695
437 2 0.950025 0.150016 0.31777
447 2 0.0500076 0.249907 0.317693
455 2 0.250203 0.249934 0.317593
463 2 0.449918 0.249806 0.317702
471 2 0.649823 0.249843 0.317606
479 2 0.850042 0.250111 0.317602
445 2 0.149962 0.350151 0.317582
453 2 0.349986 0.350102 0.317689
461 2 0.549956 0.350136 0.317588
469 2 0.750008 0.350186 0.317622
477 2 0.949954 0.349832 0.31769
487 2 0.0499247 0.449899 0.317761
495 2 0.249782 0.449891 0.317549
503 2 0.450126 0.450107 0.317563
511 2 0.650146 0.450208 0.317714
519 2 0.850172 0.449986 0.317742
485 2 0.149902 0.550084 0.317733
493 2 0.350059 0.550072 0.31769
501 2 0.550065 0.549817 0.317732
509 2 0.750138 0.549894 0.317605
517 2 0.949927 0.550157 0.317731
527 2 0.050139 0.649853 0.317739
535 2 0.249817 0.650086 0.317738
543 2 0.450232 0.650082 0.317671
551 2 0.650199 0.649907 0.317663
559 2 0.849923 0.650007 0.317569
541 2 0.549906 0.750034 0.317725
525 2 0.149857 0.749946 0.317765
533 2 0.350075 0.750229 0.317566
549 2 0.749916 0.749941 0.317676
557 2 0.949809 0.750207 0.317687
567 2 0.0500769 0.850171 0.317704
575 2 0.249964 0.849898 0.317608
583 2 0.450247 0.849873 0.317545
591 2 0.649973 0.849937 0.317655
599 2 0.849891 0.850105 0.317605
565 2 0.150171 0.950011 0.317721
573 2 0.350105 0.950041 0.317683
581 2 0.55002 0.949907 0.317755
589 2 0.74987 0.949825 0.317597
597 2 0.950171 0.950208 0.317687
609 1 0.199822 -9.54201e-06 0.347493
617 1 0.400005 -0.00022946 0.347298
633 1 0.799882 -0.000203304 0.347433
603 1 0.100179 0.100174 0.347397
611 1 0.299794 0.100021 0.347468
619 1 0.499791 0.0997966 0.34731
627 1 0.69981 0.0997869 0.347447
635 1 0.900198 0.100107 0.347459
649 1 0.200037 0.20011 0.347325
657 1 0.400224 0.200135 0.347327
665 1 0.599895 0.200202 0.34731
673 1 0.80023 0.200146 0.34746
641 1 0.999932 0.200014 0.347484
643 1 0.100235 0.300005 0.347335
651 1 0.299923 0.299962 0.34738
659 1 0.499969 0.299918 0.347307
667 1 0.700099 0.299958 0.347405
675 1 0.900025 0.299774 0.347446
681 1 9.04249e-05 0.400039 0.347493
689 1 0.199993 0.399817 0.347285
697 1 0.400045 0.40004 0.347317
705 1 0.600179 0.399919 0.347465
713 1 0.800085 0.40022 0.347359
683 1 0.10001 0.499821 0.347454
707 1 0.700104 0.5 0.347388
691 1 0.299891 0.499939 0.347354
699 1 0.499923 0.499918 0.347454
715 1 0.900148 0.500009 0.347368
729 1 0.199858 0.600126 0.34736
737 1 0.400023 0.599976 0.347282
745 1 0.600014 0.600194 0.347424
753 1 0.800142 0.600108 0.347404
721 1 1.00019 0.599987 0.347336
723 1 0.099932 0.699987 0.347448
731 1 0.300212 0.699985 0.347333
739 1 0.500021 0.70023 0.347429
747 1 0.699836 0.700095 0.347291
755 1 0.899997 0.699776 0.34741
761 1 0.000141176 0.80022 0.34749
769 1 0.199951 0.79985 0.347382
777 1 0.400155 0.800175 0.347371
785 1 0.599964 0.80007 0.347398
793 1 0.800045 0.799996 0.34734
763 1 0.100134 0.900179 0.347467
771 1 0.300076 0.900192 0.347329
779 1 0.500217 0.899936 0.347345
787 1 0.699996 0.899793 0.347442
795 1 0.899801 0.899814 0.347308
601 1 -4.30584e-05 1.00016 0.347455
625 1 0.599981 1.00013 0.347352
608 2 0.149845 0.0502104 0.377208
610 1 0.30002 6.24621e-05 0.406789
616 2 0.350031 0.0500043 0.377004
618 1 0.500199 0.000122568 0.406795
624 2 0.549872 0.0498601 0.377181
626 1 0.700001 -6.13624e-05 0.406851
632 2 0.750026 0.0499247 0.377104
640 2 0.950118 0.049876 0.377214
606 2 0.0499008 0.14985 0.377177
604 1 -6.50456e-05 0.0999855 0.406768
614 2 0.250158 0.150146 0.377064
612 1 0.200034 0.0998465 0.406911
620 1 0.3999 0.100064 0.40684
622 2 0.450128 0.15009 0.377201
630 2 0.649771 0.149946 0.377023
628 1 0.600081 0.0997943 0.40693
636 1 0.80011 0.0999223 0.406811
638 2 0.849982 0.149891 0.377157
648 2 0.149825 0.249879 0.377228
642 1 0.0998642 0.199922 0.40687
650 1 0.299804 0.200002 0.406923
656 2 0.350062 0.24986 0.377155
664 2 0.549815 0.250049 0.377212
658 1 0.49996 0.20009 0.406775
666 1 0.700057 0.200086 0.406879
674 1 0.900211 0.200018 0.40675
680 2 0.950163 0.250128 0.377138
652 1 0.200149 0.300057 0.406751
660 1 0.399849 0.300074 0.406824
668 1 0.599792 0.300148 0.406805
672 2 0.749973 0.249841 0.377169
676 1 0.799791 0.300164 0.406811
644 1 1.00018 0.299997 0.406807
646 2 0.0500145 0.349977 0.377196
682 1 0.100021 0.400118 0.406968
654 2 0.249859 0.349893 0.377013
690 1 0.300073 0.400155 0.406857
662 2 0.449863 0.349913 0.377202
698 1 0.499933 0.399933 0.406917
670 2 0.650068 0.349806 0.377088
706 1 0.699904 0.399985 0.406861
678 2 0.850032 0.349985 0.377055
714 1 0.899932 0.399956 0.406816
688 2 0.149862 0.450004 0.377191
692 1 0.2001 0.500037 0.406913
696 2 0.350187 0.449994 0.37704
700 1 0.400105 0.500166 0.40679
704 2 0.550107 0.449809 0.377114
712 2 0.749834 0.449899 0.377079
716 1 0.800126 0.499866 0.406884
720 2 0.949961 0.449928 0.377046
686 2 0.0498058 0.549867 0.377204
694 2 0.250129 0.549988 0.377088
702 2 0.450124 0.550135 0.377033
710 2 0.650044 0.549999 0.377115
708 1 0.600131 0.500092 0.406944
718 2 0.850033 0.549917 0.377071
684 1 0.999761 0.500007 0.406872
728 2 0.149916 0.649957 0.377175
722 1 0.0997765 0.600009 0.406906
730 1 0.299964 0.599839 0.406847
736 2 0.350114 0.650109 0.377049
738 1 0.499852 0.600133 0.406756
744 2 0.549859 0.650079 0.377078
746 1 0.700103 0.600212 0.406911
752 2 0.749955 0.650134 0.377105
754 1 0.900007 0.599798 0.406905
760 2 0.950045 0.650085 0.377078
724 1 -0.000187554 0.70006 0.406819
732 1 0.200048 0.700015 0.406896
740 1 0.400131 0.70004 0.406835
750 2 0.649797 0.749891 0.377144
748 1 0.600089 0.70005 0.406916
756 1 0.799855 0.700107 0.406796
758 2 0.849949 0.749963 0.377089
726 2 0.049937 0.750146 0.377086
762 1 0.100162 0.799876 0.406941
734 2 0.249844 0.749888 0.377206
770 1 0.300042 0.800004 0.406793
742 2 0.449891 0.749853 0.377156
778 1 0.500174 0.799757 0.406764
786 1 0.699864 0.799865 0.406805
794 1 0.899758 0.800004 0.406853
768 2 0.150056 0.850109 0.377057
772 1 0.199767 0.900103 0.406875
776 2 0.35008 0.850094 0.377161
780 1 0.399948 0.899856 0.406953
784 2 0.550158 0.85011 0.377228
788 1 0.599841 0.900215 0.406955
792 2 0.750046 0.849893 0.377152
796 1 0.800067 0.900197 0.406747
800 2 0.949813 0.850145 0.377129
764 1 0.999934 0.89997 0.40691
766 2 0.0501294 0.950002 0.377208
602 1 0.0998789 0.999915 0.406769
774 2 0.249895 0.949954 0.377224
782 2 0.450209 0.949994 0.377131
790 2 0.649775 0.949849 0.377151
798 2 0.85006 0.949887 0.377146
634 1 0.89984 1.00019 0.406955
607 2 0.0501266 0.0499057 0.43656
615 2 0.24999 0.0499323 0.436629
623 2 0.449869 0.0499012 0.436558
631 2 0.650098 0.0501887 0.436657
639 2 0.849913 0.0502374 0.436671
605 2 0.149797 0.149863 0.436501
613 2 0.34989 0.15002 0.436578
621 2 0.54979 0.150039 0.436551
629 2 0.749959 0.14986 0.436625
637 2 0.949827 0.150158 0.436591
647 2 0.0499514 0.249902 0.436517
655 2 0.249966 0.250019 0.436593
663 2 0.450128 0.249822 0.436488
671 2 0.649999 0.250046 0.436652
679 2 0.850037 0.24994 0.436494
645 2 0.150065 0.349906 0.436537
653 2 0.349851 0.350102 0.436599
661 2 0.550121 0.350215 0.436509
669 2 0.749901 0.349827 0.436666
677 2 0.950031 0.3501 0.43654
687 2 0.0499142 0.450183 0.43651
695 2 0.250198 0.449955 0.436602
703 2 0.450123 0.450098 0.436683
711 2 0.649911 0.450197 0.436602
719 2 0.850119 0.450096 0.436683
685 2 0.150163 0.549882 0.436506
693 2 0.350082 0.549826 0.436512
701 2 0.549923 0.550041 0.436669
709 2 0.749908 0.549893 0.436598
717 2 0.950032 0.550049 0.436645
727 2 0.0498275 0.650215 0.436543
735 2 0.250004 0.650029 0.43651
743 2 0.450143 0.650153 0.436592
751 2 0.649832 0.649988 0.436705
759 2 0.849946 0.649993 0.436508
749 2 0.749799 0.749942 0.436634
725 2 0.150044 0.749963 0.436621
733 2 0.35011 0.749898 0.436672
741 2 0.550056 0.750064 0.43668
757 2 0.949814 0.750028 0.436614
767 2 0.0499406 0.849791 0.436531
775 2 0.249884 0.850211 0.43653
783 2 0.450135 0.849801 0.436555
791 2 0.650074 0.850115 0.436613
799 2 0.849788 0.850144 0.436542
765 2 0.150065 0.94983 0.436571
773 2 0.349787 0.949842 0.436535
781 2 0.550156 0.950074 0.436544
789 2 0.749945 0.949852 0.436533
797 2 0.95012 0.950148 0.436651
801 1 -0.000185825 1.23366e-06 0.466234
808 2 0.149963 0.0499296 0.496061
809 1 0.199782 -0.000192872 0.466216
816 2 0.349906 0.0500295 0.495982
824 2 0.549945 0.0498645 0.495996
825 1 0.599988 -8.62853e-05 0.466356
832 2 0.749803 0.0498504 0.496006
840 2 0.950026 0.0500062 0.495967
806 2 0.0499557 0.149997 0.496084
803 1 0.100057 0.100119 0.466303
811 1 0.300182 0.0997973 0.466202
814 2 0.249852 0.149782 0.495944
822 2 0.449841 0.149818 0.496111
819 1 0.499827 0.0999102 0.46629
830 2 0.649837 0.149933 0.495989
827 1 0.700126 0.100103 0.466268
835 1 0.899964 0.0999907 0.466278
838 2 0.849797 0.150029 0.495949
841 1 8.54293e-07 0.199986 0.466381
848 2 0.150009 0.25021 0.496085
849 1 0.199772 0.199848 0.466406
857 1 0.399976 0.200098 0.466264
864 2 0.549928 0.249864 0.495964
865 1 0.599959 0.200058 0.466272
873 1 0.800083 0.199956 0.466217
872 2 0.749996 0.249882 0.495941
843 1 0.0998998 0.300193 0.466266
851 1 0.30008 0.299909 0.466416
856 2 0.349857 0.250061 0.496066
859 1 0.500189 0.2998 0.466375
867 1 0.699796 0.299877 0.466324
875 1 0.899921 0.300165 0.466396
880 2 0.950199 0.250023 0.496049
846 2 0.0501756 0.350217 0.495958
889 1 0.199846 0.400179 0.466223
854 2 0.250005 0.350165 0.496023
897 1 0.399831 0.399886 0.466222
862 2 0.449809 0.349797 0.496127
905 1 0.600132 0.400206 0.466253
870 2 0.649972 0.349798 0.496032
913 1 0.80017 0.39986 0.466303
878 2 0.849983 0.350081 0.496092
881 1 1.00019 0.400032 0.466262
888 2 0.15008 0.450189 0.496091
891 1 0.299898 0.500151 0.466378
896 2 0.349897 0.449944 0.496107
904 2 0.549871 0.450118 0.496056
912 2 0.750189 0.449928 0.496115
915 1 0.899823 0.49998 0.466243
920 2 0.94995 0.450168 0.496032
886 2 0.0499522 0.550086 0.495988
883 1 0.0999118 0.499787 0.466391
894 2 0.250124 0.549978 0.495955
899 1 0.500189 0.499947 0.466403
902 2 0.450195 0.549859 0.496088
910 2 0.65001 0.550155 0.495951
907 1 0.70003 0.499892 0.46639
918 2 0.850071 0.549959 0.496077
921 1 0.000116341 0.60003 0.466408
928 2 0.149975 0.650115 0.49594
929 1 0.200186 0.599968 0.466282
937 1 0.400042 0.599765 0.466327
936 2 0.350004 0.64979 0.495996
944 2 0.550016 0.650145 0.496137
945 1 0.59988 0.599931 0.466433
953 1 0.800126 0.599841 0.466267
952 2 0.749916 0.650013 0.495986
960 2 0.949997 0.64983 0.495984
923 1 0.0997876 0.700079 0.466213
931 1 0.299979 0.700105 0.4664
939 1 0.499895 0.70006 0.466248
947 1 0.700045 0.699862 0.466421
955 1 0.899866 0.699879 0.466369
961 1 -2.4705e-05 0.799947 0.466364
926 2 0.0500649 0.750058 0.495987
969 1 0.199904 0.800207 0.466353
934 2 0.250143 0.7501 0.496068
977 1 0.399872 0.800031 0.466405
942 2 0.450182 0.750176 0.495966
985 1 0.600075 0.799936 0.466295
950 2 0.64984 0.75016 0.496001
993 1 0.799871 0.799878 0.466344
958 2 0.8498 0.750085 0.496097
963 1 0.0998009 0.899854 0.466399
968 2 0.150067 0.850174 0.49602
971 1 0.300096 0.899915 0.466387
976 2 0.34998 0.850073 0.496144
979 1 0.500145 0.89986 0.466305
984 2 0.549901 0.850151 0.496081
987 1 0.699956 0.899868 0.46631
992 2 0.749962 0.850072 0.496071
995 1 0.899921 0.899856 0.466219
1000 2 0.949928 0.850171 0.496079
966 2 0.0501117 0.950111 0.496056
974 2 0.250076 0.950113 0.496049
817 1 0.399842 0.999974 0.466349
982 2 0.450044 0.950152 0.496136
990 2 0.650144 0.950211 0.495946
833 1 0.800104 1.00012 0.466255
998 2 0.850137 0.949945 0.496116
818 1 0.500052 0.000128682 0.525877
826 1 0.70003 5.69057e-05 0.525752
834 1 0.899868 0.00010124 0.525803
804 1 8.68598e-05 0.0998042 0.525812
812 1 0.199831 0.100075 0.52577
820 1 0.400071 0.0998939 0.525835
828 1 0.600097 0.0999842 0.525795
836 1 0.799745 0.100016 0.525658
842 1 0.100158 0.200111 0.525774
850 1 0.299803 0.199951 0.525694
858 1 0.500158 0.200204 0.525856
866 1 0.699832 0.200167 0.52571
874 1 0.900181 0.199817 0.525736
844 1 -9.93641e-05 0.299856 0.525767
852 1 0.200052 0.300007 0.525764
860 1 0.39985 0.299859 0.525837
868 1 0.599899 0.30007 0.525824
876 1 0.800167 0.299917 0.525721
882 1 0.0999976 0.400077 0.525888
890 1 0.300023 0.400002 0.525824
898 1 0.500016 0.399899 0.525845
906 1 0.699772 0.40005 0.525726
914 1 0.899839 0.399831 0.525792
892 1 0.200081 0.500156 0.525741
908 1 0.600123 0.499837 0.525734
884 1 6.67526e-05 0.499795 0.525834
900 1 0.399798 0.500222 0.525867
916 1 0.800203 0.499966 0.525781
922 1 0.0998598 0.600214 0.525788
930 1 0.300042 0.59978 0.525821
938 1 0.499811 0.599804 0.525819
946 1 0.700001 0.600057 0.525855
954 1 0.900156 0.599845 0.525762
924 1 -0.000134982 0.69994 0.525863
932 1 0.200106 0.699927 0.525774
940 1 0.400032 0.700103 0.525841
948 1 0.600161 0.700224 0.525851
956 1 0.799907 0.700029 0.525699
962 1 0.0998158 0.799794 0.525753
970 1 0.300057 0.800154 0.525821
978 1 0.499952 0.799897 0.525873
986 1 0.699946 0.800024 0.525696
994 1 0.89981 0.800134 0.525767
964 1 3.86229e-05 0.900006 0.525814
972 1 0.199943 0.900199 0.52571
980 1 0.399962 0.899876 0.525722
988 1 0.600062 0.900245 0.525718
996 1 0.800107 0.899919 0.525711
802 1 0.100083 1.00018 0.525854
810 1 0.300065 0.99981 0.525764
807 2 0.0499796 0.0497835 0.555513
815 2 0.250083 0.0498321 0.555524
823 2 0.449842 0.0499616 0.555535
831 2 0.649893 0.0501477 0.555597
839 2 0.849958 0.0500846 0.555455
805 2 0.150067 0.14987 0.555553
813 2 0.349932 0.150086 0.555518
821 2 0.549934 0.149893 0.555417
829 2 0.749788 0.149915 0.555532
837 2 0.949972 0.150139 0.555558
855 2 0.250169 0.24997 0.555601
871 2 0.650163 0.249922 0.55554
879 2 0.849907 0.25005 0.555434
847 2 0.0498398 0.249987 0.555586
863 2 0.450065 0.250146 0.555562
845 2 0.150017 0.349824 0.555529
853 2 0.350023 0.349936 0.555459