ITEM: TIMESTEP
200
ITEM: NUMBER OF ATOMS
1250
ITEM: BOX BOUNDS pp pp pp
0.0000000000000000e+00 3.3500000000000000e+01
0.0000000000000000e+00 3.3500000000000000e+01
-1.3400000000000000e+01 5.3600000000000001e+01
ITEM: ATOMS id type xs ys zs
1 1 0 0 0
8 2 0.15 0.05 0.025
9 1 0.2 0 0
16 2 0.35 0.05 0.025
17 1 0.4 0 0
24 2 0.55 0.05 0.025
25 1 0.6 0 0
32 2 0.75 0.05 0.025
33 1 0.8 0 0
40 2 0.95 0.05 0.025
6 2 0.05 0.15 0.025
3 1 0.1 0.1 0
11 1 0.3 0.1 0
14 2 0.25 0.15 0.025
22 2 0.45 0.15 0.025
19 1 0.5 0.1 0
30 2 0.65 0.15 0.025
27 1 0.7 0.1 0
35 1 0.9 0.1 0
38 2 0.85 0.15 0.025
41 1 0 0.2 0
49 1 0.2 0.2 0
57 1 0.4 0.2 0
65 1 0.6 0.2 0
73 1 0.8 0.2 0
43 1 0.1 0.3 0
48 2 0.15 0.25 0.025
51 1 0.3 0.3 0
56 2 0.35 0.25 0.025
59 1 0.5 0.3 0
64 2 0.55 0.25 0.025
67 1 0.7 0.3 0
72 2 0.75 0.25 0.025
75 1 0.9 0.3 0
80 2 0.95 0.25 0.025
46 2 0.05 0.35 0.025
81 1 0 0.4 0
89 1 0.2 0.4 0
54 2 0.25 0.35 0.025
97 1 0.4 0.4 0
62 2 0.45 0.35 0.025
70 2 0.65 0.35 0.025
105 1 0.6 0.4 0
113 1 0.8 0.4 0
78 2 0.85 0.35 0.025
88 2 0.15 0.45 0.025
96 2 0.35 0.45 0.025
104 2 0.55 0.45 0.025
112 2 0.75 0.45 0.025
120 2 0.95 0.45 0.025
86 2 0.05 0.55 0.025
83 1 0.1 0.5 0
91 1 0.3 0.5 0
94 2 0.25 0.55 0.025
102 2 0.45 0.55 0.025
99 1 0.5 0.5 0
110 2 0.65 0.55 0.025
107 1 0.7 0.5 0
115 1 0.9 0.5 0
118 2 0.85 0.55 0.025
121 1 0 0.6 0
128 2 0.15 0.65 0.025
129 1 0.2 0.6 0
136 2 0.35 0.65 0.025
137 1 0.4 0.6 0
144 2 0.55 0.65 0.025
145 1 0.6 0.6 0
152 2 0.75 0.65 0.025
153 1 0.8 0.6 0
160 2 0.95 0.65 0.025
123 1 0.1 0.7 0
131 1 0.3 0.7 0
139 1 0.5 0.7 0
147 1 0.7 0.7 0
155 1 0.9 0.7 0
126 2 0.05 0.75 0.025
161 1 0 0.8 0
169 1 0.2 0.8 0
134 2 0.25 0.75 0.025
177 1 0.4 0.8 0
142 2 0.45 0.75 0.025
150 2 0.65 0.75 0.025
185 1 0.6 0.8 0
193 1 0.8 0.8 0
158 2 0.85 0.75 0.025
163 1 0.1 0.9 0
168 2 0.15 0.85 0.025
171 1 0.3 0.9 0
176 2 0.35 0.85 0.025
179 1 0.5 0.9 0
184 2 0.55 0.85 0.025
187 1 0.7 0.9 0
192 2 0.75 0.85 0.025
195 1 0.9 0.9 0
200 2 0.95 0.85 0.025
166 2 0.05 0.95 0.025
174 2 0.25 0.95 0.025
182 2 0.45 0.95 0.025
190 2 0.65 0.95 0.025
198 2 0.85 0.95 0.025
7 2 0.0501236 0.0505017 0.0761012
2 1 0.1 0 0.05
10 1 0.3 0 0.05
15 2 0.249684 0.0499922 0.0763499
23 2 0.450318 0.0502442 0.0763514
18 1 0.5 0 0.05
31 2 0.650058 0.0498861 0.0761837
26 1 0.7 0 0.05
34 1 0.9 0 0.05
39 2 0.850506 0.0502192 0.0760788
4 1 0 0.1 0.05
5 2 0.149855 0.150245 0.0758366
12 1 0.2 0.1 0.05
13 2 0.349923 0.150351 0.0763821
20 1 0.4 0.1 0.05
21 2 0.550445 0.150598 0.0758445
28 1 0.6 0.1 0.05
29 2 0.750537 0.14984 0.0758559
36 1 0.8 0.1 0.05
37 2 0.950355 0.149722 0.0763016
42 1 0.1 0.2 0.05
50 1 0.3 0.2 0.05
58 1 0.5 0.2 0.05
71 2 0.650533 0.249573 0.0761087
66 1 0.7 0.2 0.05
74 1 0.9 0.2 0.05
44 1 0 0.3 0.05
47 2 0.0495508 0.250295 0.0757793
52 1 0.2 0.3 0.05
55 2 0.249722 0.250229 0.0762554
60 1 0.4 0.3 0.05
63 2 0.449783 0.249617 0.0761624
68 1 0.6 0.3 0.05
76 1 0.8 0.3 0.05
79 2 0.849849 0.250623 0.0760416
45 2 0.149316 0.350266 0.076043
82 1 0.1 0.4 0.05
90 1 0.3 0.4 0.05
53 2 0.349759 0.349945 0.0759175
61 2 0.550512 0.349925 0.0761557
98 1 0.5 0.4 0.05
106 1 0.7 0.4 0.05
69 2 0.750246 0.349559 0.0761042
114 1 0.9 0.4 0.05
77 2 0.949924 0.350217 0.0761962
87 2 0.0495302 0.449548 0.0760495
95 2 0.25028 0.450142 0.0762283
103 2 0.450104 0.450322 0.0759337
111 2 0.650121 0.449357 0.0762402
119 2 0.849968 0.449234 0.0759338
84 1 0 0.5 0.05
85 2 0.149494 0.549883 0.0759805
92 1 0.2 0.5 0.05
93 2 0.349969 0.550461 0.0763705
100 1 0.4 0.5 0.05
101 2 0.550307 0.550607 0.07632
108 1 0.6 0.5 0.05
109 2 0.750404 0.549568 0.0761783
116 1 0.8 0.5 0.05
117 2 0.949998 0.550459 0.076103
127 2 0.050542 0.650433 0.0758476
122 1 0.1 0.6 0.05
135 2 0.249511 0.649627 0.0762391
130 1 0.3 0.6 0.05
143 2 0.45018 0.650613 0.076017
138 1 0.5 0.6 0.05
151 2 0.64976 0.650154 0.0759606
146 1 0.7 0.6 0.05
154 1 0.9 0.6 0.05
159 2 0.850035 0.650253 0.0763016
124 1 0 0.7 0.05
125 2 0.150874 0.750369 0.0763727
132 1 0.2 0.7 0.05
140 1 0.4 0.7 0.05
133 2 0.350179 0.749773 0.0759428
141 2 0.549662 0.7504 0.0764163
148 1 0.6 0.7 0.05
149 2 0.749814 0.750018 0.0760965
156 1 0.8 0.7 0.05
157 2 0.950093 0.750408 0.0761472
162 1 0.1 0.8 0.05
170 1 0.3 0.8 0.05
178 1 0.5 0.8 0.05
186 1 0.7 0.8 0.05
194 1 0.9 0.8 0.05
164 1 0 0.9 0.05
167 2 0.04988 0.850418 0.0758072
172 1 0.2 0.9 0.05
175 2 0.250711 0.850271 0.0762402
180 1 0.4 0.9 0.05
183 2 0.450283 0.850422 0.0760327
188 1 0.6 0.9 0.05
191 2 0.650299 0.849437 0.0763734
196 1 0.8 0.9 0.05
199 2 0.850212 0.849738 0.0762885
165 2 0.149282 0.949578 0.0763275
173 2 0.349902 0.949878 0.0763538
181 2 0.549217 0.949497 0.076041
189 2 0.750517 0.950173 0.075855
197 2 0.949571 0.949725 0.0761058
201 1 -7.8541e-06 0.000369183 0.102124
217 1 0.399449 0.000745686 0.102219
225 1 0.598974 -0.000143737 0.102126
233 1 0.800564 -2.81537e-05 0.101927
203 1 0.100374 0.100409 0.101833
211 1 0.299785 0.100379 0.102241
219 1 0.500639 0.100803 0.10187
227 1 0.700393 0.100333 0.101867
235 1 0.900018 0.100244 0.102128
249 1 0.200213 0.199568 0.102105
257 1 0.400115 0.200071 0.102411
265 1 0.599861 0.20043 0.102232
273 1 0.799874 0.2002 0.101918
241 1 1.00028 0.200247 0.10207
243 1 0.0996796 0.299415 0.102017
251 1 0.299835 0.299982 0.102019
259 1 0.499953 0.299733 0.102092
267 1 0.700499 0.299638 0.102289
275 1 0.900141 0.300314 0.102303
281 1 -2.15131e-05 0.39954 0.102285
289 1 0.199897 0.400018 0.102082
297 1 0.400056 0.400104 0.101968
305 1 0.600292 0.399395 0.102513
313 1 0.800013 0.399878 0.1022
283 1 0.100009 0.499765 0.10196
291 1 0.29973 0.500061 0.102374
299 1 0.500331 0.500433 0.102338
315 1 0.899713 0.49954 0.102061
307 1 0.700196 0.500106 0.102123
321 1 -9.359e-05 0.601009 0.10217
329 1 0.199168 0.599674 0.102183
337 1 0.400455 0.600703 0.10252
345 1 0.60074 0.599756 0.102148
353 1 0.799443 0.600142 0.102027
323 1 0.100212 0.700202 0.101957
331 1 0.300179 0.699853 0.101951
339 1 0.499444 0.700644 0.10252
347 1 0.700255 0.699705 0.102313
355 1 0.900014 0.700318 0.102155
361 1 0.000364809 0.800422 0.102068
369 1 0.201002 0.800569 0.102225
377 1 0.399657 0.800501 0.102248
385 1 0.600081 0.79999 0.102597
393 1 0.799515 0.80012 0.102358
363 1 0.0995059 0.899396 0.102146
371 1 0.300029 0.900055 0.102575
379 1 0.499979 0.899624 0.102351
387 1 0.700608 0.900205 0.102056
395 1 0.900004 0.899421 0.102383
209 1 0.199659 0.999502 0.102215
208 2 0.149668 0.0504294 0.128052
216 2 0.349573 0.0504984 0.128118
224 2 0.54935 0.0505373 0.128481
232 2 0.750104 0.0500808 0.128058
240 2 0.950011 0.0504537 0.12804
206 2 0.0505217 0.150153 0.128115
212 1 0.199866 0.100222 0.154502
214 2 0.250191 0.150306 0.128466
220 1 0.400069 0.0993347 0.15421
222 2 0.449825 0.149503 0.128014
228 1 0.5996 0.100615 0.154461
230 2 0.650069 0.149863 0.127971
236 1 0.799726 0.0995322 0.154294
238 2 0.849262 0.14972 0.128337
204 1 0.999729 0.100214 0.154243
242 1 0.100792 0.199898 0.154401
248 2 0.15005 0.250182 0.128052
250 1 0.30047 0.199787 0.154743
256 2 0.350031 0.250063 0.128333
258 1 0.499294 0.19987 0.154249
266 1 0.700191 0.199759 0.153994
274 1 0.899296 0.199611 0.15447
280 2 0.949672 0.249235 0.128143
252 1 0.200009 0.30046 0.15424
260 1 0.400379 0.299425 0.154584
264 2 0.54989 0.250128 0.128419
268 1 0.600354 0.300226 0.154414
272 2 0.750467 0.249662 0.128277
276 1 0.800074 0.300423 0.154195
244 1 1.00007 0.299459 0.154049
246 2 0.0505841 0.349514 0.128137
282 1 0.100016 0.399684 0.154432
254 2 0.2498 0.350119 0.127966
290 1 0.299507 0.399266 0.154777
262 2 0.449768 0.349924 0.128465
298 1 0.500198 0.399717 0.154541
270 2 0.650634 0.350026 0.12835
306 1 0.700306 0.399863 0.154254
278 2 0.849904 0.350432 0.128151
314 1 0.89957 0.39995 0.154456
288 2 0.150173 0.44963 0.12841
296 2 0.349885 0.449881 0.128631
304 2 0.550014 0.449679 0.128274
312 2 0.750259 0.450066 0.128166
320 2 0.949739 0.449953 0.128397
286 2 0.0500188 0.549949 0.128049
292 1 0.200193 0.499752 0.15435
294 2 0.249492 0.550102 0.12811
300 1 0.400528 0.500651 0.154313
302 2 0.450516 0.550503 0.128408
308 1 0.599982 0.499913 0.154217
310 2 0.65011 0.549979 0.128204
316 1 0.799923 0.500489 0.154188
318 2 0.849628 0.550264 0.127841
284 1 1.00019 0.499689 0.154249
322 1 0.100449 0.599992 0.154435
328 2 0.150158 0.650579 0.128263
330 1 0.299924 0.600245 0.154245
336 2 0.34974 0.650428 0.128453
338 1 0.500758 0.599606 0.15418
344 2 0.550013 0.649446 0.127949
346 1 0.699933 0.600397 0.154374
352 2 0.750163 0.649991 0.128347
354 1 0.899731 0.598906 0.154599
360 2 0.949042 0.650098 0.128395
326 2 0.049783 0.749784 0.127996
332 1 0.200814 0.700026 0.154495
334 2 0.250617 0.75027 0.128264
340 1 0.399925 0.699458 0.154477
348 1 0.599777 0.699462 0.154284
356 1 0.800578 0.70024 0.154565
324 1 1.00051 0.69937 0.154064
362 1 0.100219 0.799962 0.154061
370 1 0.300097 0.79969 0.154623
342 2 0.449934 0.750603 0.128826
378 1 0.500767 0.800485 0.154679
350 2 0.650707 0.749957 0.128668
386 1 0.700946 0.8 0.154764
358 2 0.850292 0.750133 0.128051
394 1 0.899888 0.799339 0.154457
368 2 0.150165 0.849882 0.128017
372 1 0.199238 0.899709 0.154506
376 2 0.34962 0.850298 0.128687
380 1 0.400569 0.900416 0.154358
384 2 0.550695 0.85068 0.12837
388 1 0.60095 0.899915 0.154465
392 2 0.750212 0.8506 0.128659
396 1 0.800655 0.899888 0.154929
364 1 1.00065 0.900029 0.154315
400 2 0.950332 0.849486 0.128591
366 2 0.0503179 0.950541 0.128151
202 1 0.100306 1.00021 0.154435
374 2 0.24924 0.949423 0.128401
210 1 0.299507 1.00029 0.15411
382 2 0.449986 0.950627 0.12788
218 1 0.499791 0.999779 0.154203
390 2 0.649487 0.94978 0.127935
226 1 0.699606 0.99973 0.154059
234 1 0.900946 0.999436 0.154055
398 2 0.850266 0.950005 0.128231
207 2 0.0500067 0.0500836 0.180392
215 2 0.24981 0.0496409 0.180404
223 2 0.450323 0.0493142 0.180437
231 2 0.649754 0.0501638 0.180344
239 2 0.850109 0.049229 0.179912
205 2 0.150401 0.150148 0.18071
213 2 0.350501 0.149456 0.180869
221 2 0.549238 0.150461 0.180667
229 2 0.749921 0.14971 0.180166
237 2 0.949122 0.149209 0.180531
247 2 0.0504182 0.249906 0.180512
255 2 0.249618 0.24961 0.180568
263 2 0.449769 0.249643 0.180468
271 2 0.650405 0.249391 0.180439
279 2 0.849455 0.250225 0.180206
245 2 0.149712 0.350219 0.180335
253 2 0.350694 0.349409 0.180829
261 2 0.550205 0.349799 0.180441
269 2 0.749985 0.349847 0.180257
277 2 0.950118 0.349735 0.180335
287 2 0.0503183 0.450095 0.180424
295 2 0.249377 0.450172 0.180883
303 2 0.450326 0.450243 0.180447
311 2 0.649639 0.44966 0.180189
319 2 0.849549 0.450169 0.180442
285 2 0.149801 0.549604 0.180754
293 2 0.35039 0.550534 0.180207
301 2 0.549995 0.549681 0.180497
309 2 0.749763 0.549862 0.180624
317 2 0.950534 0.54912 0.180681
327 2 0.0502831 0.650061 0.180293
335 2 0.250129 0.649252 0.18079
343 2 0.450767 0.649623 0.180206
351 2 0.649649 0.650291 0.180547
359 2 0.850413 0.649589 0.180546
325 2 0.150446 0.750474 0.180156
333 2 0.350032 0.74915 0.180613
341 2 0.550463 0.749769 0.180648
349 2 0.750874 0.750465 0.180901
357 2 0.95079 0.749479 0.18002
367 2 0.0507056 0.849664 0.180222
375 2 0.249168 0.84929 0.180284
383 2 0.449798 0.849881 0.180422
391 2 0.650922 0.850177 0.180727
399 2 0.85114 0.849658 0.180944
365 2 0.15005 0.950017 0.180474
373 2 0.349404 0.950176 0.180377
381 2 0.549812 0.949589 0.180094
389 2 0.749309 0.950184 0.180619
397 2 0.949835 0.949288 0.180476
408 2 0.15006 0.0504475 0.233084
416 2 0.349697 0.0504078 0.232883
424 2 0.55057 0.0494735 0.232701
432 2 0.749831 0.050832 0.232472
440 2 0.949197 0.0492535 0.232886
406 2 0.0498157 0.149883 0.232675
403 1 0.100169 0.100129 0.206735
414 2 0.249806 0.150661 0.232877
411 1 0.299096 0.0998211 0.206818
422 2 0.449673 0.149869 0.232456
419 1 0.500172 0.0995439 0.206715
430 2 0.649456 0.150902 0.232324
427 1 0.699277 0.100679 0.206384
435 1 0.899339 0.0991006 0.206606
438 2 0.850384 0.150155 0.232859
448 2 0.150096 0.250087 0.232511
449 1 0.199962 0.19988 0.206751
457 1 0.399786 0.200665 0.206882
456 2 0.349967 0.250066 0.233014
464 2 0.549478 0.25034 0.232802
465 1 0.599135 0.200769 0.206669
473 1 0.800098 0.199882 0.206295
472 2 0.750331 0.249718 0.232508
441 1 0.999639 0.199326 0.206335
480 2 0.950524 0.250174 0.232589
443 1 0.100137 0.300199 0.206474
451 1 0.30008 0.299183 0.206649
459 1 0.499747 0.300057 0.206335
467 1 0.700279 0.299476 0.206513
475 1 0.899821 0.299556 0.206501
446 2 0.0502987 0.349558 0.232437
489 1 0.19899 0.399847 0.206783
454 2 0.249796 0.349772 0.232408
497 1 0.399944 0.400748 0.206792
462 2 0.450156 0.350625 0.232673
470 2 0.650139 0.349112 0.232649
505 1 0.600054 0.399754 0.206687
513 1 0.799704 0.399936 0.206271
478 2 0.849794 0.35029 0.232407
481 1 1.00068 0.399696 0.206328
488 2 0.149498 0.450402 0.232698
496 2 0.349542 0.450182 0.232677
504 2 0.549477 0.448952 0.232877
512 2 0.749691 0.449694 0.232649
520 2 0.950448 0.449921 0.232331
486 2 0.0501 0.550159 0.232916
483 1 0.0994085 0.500307 0.206839
494 2 0.249572 0.550206 0.232683
491 1 0.300164 0.500552 0.206506
502 2 0.449493 0.550328 0.232562
499 1 0.500445 0.499707 0.206853
510 2 0.649466 0.549554 0.232848
507 1 0.69922 0.49993 0.206424
515 1 0.89942 0.499807 0.206722
518 2 0.849844 0.55045 0.232898
528 2 0.149688 0.649541 0.232529
529 1 0.199775 0.599706 0.20675
536 2 0.350238 0.649736 0.232478
537 1 0.399933 0.600184 0.206242
544 2 0.550572 0.650076 0.232516
545 1 0.600207 0.599559 0.206363
552 2 0.750329 0.650648 0.23227
553 1 0.799962 0.600073 0.206521
521 1 1.00086 0.599479 0.206386
560 2 0.950839 0.649474 0.232519
523 1 0.10057 0.700499 0.206326
531 1 0.299482 0.699484 0.206844
539 1 0.500016 0.700562 0.206803
547 1 0.700033 0.700365 0.206296
555 1 0.90085 0.699933 0.206314
526 2 0.049913 0.750082 0.232599
569 1 0.199711 0.799694 0.206826
534 2 0.249234 0.749338 0.232914
577 1 0.4 0.800078 0.206537
542 2 0.449416 0.750358 0.232897
550 2 0.650429 0.749415 0.2327
585 1 0.600602 0.800178 0.206736
593 1 0.800925 0.80032 0.206804
558 2 0.850336 0.749493 0.232423
561 1 1.00044 0.800023 0.206159
563 1 0.100513 0.899519 0.206462
568 2 0.150073 0.850123 0.232798
571 1 0.29949 0.899267 0.206258
576 2 0.349815 0.849999 0.232814
579 1 0.500292 0.89932 0.206228
584 2 0.550449 0.850015 0.232574
587 1 0.700268 0.900073 0.206884
592 2 0.750486 0.849887 0.232433
595 1 0.900247 0.900579 0.206868
600 2 0.95031 0.850196 0.232374
566 2 0.04999 0.949357 0.232517
409 1 0.199737 1.00003 0.206808
574 2 0.25059 0.949659 0.2326
417 1 0.399565 0.99976 0.206788
582 2 0.450566 0.949422 0.232281
425 1 0.599721 0.999773 0.206237
590 2 0.649611 0.949608 0.232484
433 1 0.799381 1.00059 0.206287
598 2 0.849469 0.950487 0.232235
401 1 0.999601 0.999746 0.206619
412 1 0.200477 0.100355 0.258989
420 1 0.400338 0.100297 0.25878
428 1 0.600215 0.100631 0.258522
436 1 0.80022 0.0998665 0.258887
404 1 0.999166 0.100198 0.258574
442 1 0.09958 0.200436 0.258786
450 1 0.300394 0.200058 0.258736
458 1 0.499317 0.200057 0.25861
466 1 0.700276 0.199328 0.258647
474 1 0.900552 0.20002 0.259005
452 1 0.200162 0.300212 0.258877
460 1 0.400632 0.299915 0.258673
468 1 0.599413 0.300137 0.258821
476 1 0.800011 0.299899 0.258665
444 1 1.00017 0.300299 0.258667
482 1 0.0998884 0.399921 0.258434
490 1 0.299862 0.40003 0.258512
498 1 0.49958 0.400297 0.258972
506 1 0.699264 0.399729 0.258709
514 1 0.900008 0.400231 0.258637
492 1 0.199492 0.499997 0.258551
500 1 0.399627 0.500049 0.258633
508 1 0.599656 0.498973 0.258579
516 1 0.80081 0.499115 0.25863
484 1 0.99997 0.499797 0.258949
522 1 0.100234 0.600005 0.258941
530 1 0.29973 0.600166 0.25877
538 1 0.500227 0.599612 0.258793
546 1 0.700723 0.599923 0.258406
554 1 0.900325 0.600491 0.258756
532 1 0.19897 0.69939 0.258819
540 1 0.39992 0.699799 0.258776
548 1 0.600078 0.699755 0.258975
556 1 0.799422 0.700698 0.25868
524 1 1.00011 0.700032 0.258992
562 1 0.100083 0.799866 0.258898
570 1 0.299512 0.79953 0.258609
578 1 0.500643 0.799621 0.258357
586 1 0.700364 0.800027 0.258568
594 1 0.900081 0.799913 0.258412
572 1 0.200124 0.899739 0.258726
580 1 0.400741 0.90016 0.258569
588 1 0.600052 0.900073 0.258817
596 1 0.800451 0.89993 0.258252
564 1 1.00014 0.899905 0.258746
402 1 0.0996104 0.999528 0.258711
410 1 0.30007 1.00034 0.258937
418 1 0.500415 0.999298 0.258789
426 1 0.699422 1.00016 0.258404
434 1 0.899273 0.999201 0.25867
407 2 0.0498387 0.0506279 0.284831
415 2 0.249334 0.0496721 0.285144
423 2 0.450077 0.0498745 0.284786
431 2 0.649631 0.050024 0.284856
439 2 0.850378 0.0496945 0.28505
405 2 0.150008 0.150219 0.284618
603 1 0.100383 0.100632 0.310892
611 1 0.29952 0.100129 0.310921
413 2 0.350212 0.150155 0.284853
421 2 0.549291 0.150071 0.284604
619 1 0.49961 0.0996251 0.310829
627 1 0.699602 0.0994423 0.311036
429 2 0.750506 0.149652 0.285138
635 1 0.900662 0.0999917 0.311208
437 2 0.950219 0.15012 0.285194
447 2 0.0497331 0.249999 0.285
455 2 0.250632 0.249896 0.284572
649 1 0.200016 0.200446 0.310662
657 1 0.400571 0.200061 0.310859
463 2 0.449883 0.249592 0.284815
471 2 0.649667 0.249651 0.284545
665 1 0.599129 0.200572 0.310677
673 1 0.800816 0.200387 0.311055
479 2 0.85024 0.250266 0.284667
641 1 0.999989 0.200015 0.311233
643 1 0.100661 0.300092 0.310761
651 1 0.300046 0.29971 0.310845
659 1 0.499775 0.299926 0.310649
667 1 0.700389 0.299552 0.310737
675 1 0.900096 0.299286 0.311028
445 2 0.149825 0.350446 0.284475
689 1 0.199639 0.399707 0.310607
453 2 0.350024 0.350141 0.284754
697 1 0.400533 0.400145 0.310586
461 2 0.549834 0.350614 0.284706
705 1 0.600749 0.399683 0.310968
469 2 0.750122 0.350558 0.28469
713 1 0.800227 0.40061 0.310783
477 2 0.949803 0.349647 0.284959
681 1 1.00015 0.399666 0.311188
487 2 0.0499708 0.449434 0.28506
495 2 0.24928 0.449644 0.28439
503 2 0.450199 0.450569 0.284561
511 2 0.6504 0.45052 0.28497
519 2 0.850752 0.450092 0.285028
485 2 0.149742 0.549905 0.28504
683 1 0.0998234 0.499576 0.311166
691 1 0.299641 0.499564 0.310603
493 2 0.349981 0.550088 0.284826
501 2 0.550353 0.549269 0.28504
699 1 0.499989 0.499507 0.311097
707 1 0.700486 0.500312 0.310878
509 2 0.750808 0.549628 0.284568
715 1 0.900525 0.500106 0.310828
517 2 0.949948 0.55053 0.284945
527 2 0.0505195 0.649744 0.28501
535 2 0.249512 0.650296 0.284994
729 1 0.199546 0.600299 0.310956
737 1 0.400304 0.600202 0.310506
543 2 0.450817 0.650418 0.28483
551 2 0.650635 0.649552 0.284696
745 1 0.600073 0.600515 0.310972
753 1 0.800317 0.600307 0.310871
559 2 0.849645 0.650242 0.28444
721 1 1.00056 0.59991 0.31086
723 1 0.0996658 0.699893 0.311202
731 1 0.300575 0.700365 0.310671
739 1 0.499948 0.700757 0.311018
747 1 0.699407 0.700328 0.310677
755 1 0.899813 0.699411 0.310826
525 2 0.149498 0.74957 0.285122
769 1 0.199934 0.799531 0.310887
533 2 0.350421 0.750813 0.284552
777 1 0.40061 0.80064 0.310793
541 2 0.549833 0.750192 0.284946
785 1 0.59981 0.800268 0.310969
549 2 0.749611 0.750077 0.284869
793 1 0.800085 0.799967 0.310666
557 2 0.949641 0.750637 0.285043
761 1 1.00014 0.800987 0.311123
567 2 0.0505095 0.850666 0.285001
763 1 0.100436 0.900717 0.311099
575 2 0.249951 0.849588 0.284718
771 1 0.300041 0.900487 0.310738
583 2 0.451072 0.849682 0.284344
779 1 0.500652 0.89948 0.310831
591 2 0.649973 0.849713 0.284733
787 1 0.699855 0.899269 0.311075
599 2 0.84971 0.849972 0.284429
795 1 0.89954 0.899762 0.310508
565 2 0.150512 0.950072 0.284915
609 1 0.199333 1.00012 0.311427
573 2 0.350443 0.950027 0.284645
617 1 0.400358 0.999354 0.310682
581 2 0.550323 0.949722 0.285072
625 1 0.599792 1.00024 0.310909
589 2 0.749479 0.949246 0.284466
633 1 0.799669 0.999124 0.310903
597 2 0.950439 0.950528 0.284887
601 1 1.00024 1.00046 0.311188
608 2 0.149443 0.0506667 0.337268
616 2 0.350221 0.0499316 0.336501
624 2 0.549759 0.0498594 0.337016
632 2 0.750048 0.0496138 0.336946
640 2 0.950111 0.0495996 0.337316
606 2 0.0497145 0.14955 0.337073
614 2 0.25008 0.150497 0.336886
622 2 0.450324 0.150153 0.337085
630 2 0.649124 0.149999 0.336719
638 2 0.85017 0.149722 0.337078
664 2 0.5494 0.250306 0.337096
672 2 0.749971 0.249552 0.337091
648 2 0.149546 0.249531 0.337256
656 2 0.350034 0.249442 0.337033
680 2 0.950687 0.250466 0.337047
646 2 0.0505443 0.349978 0.337176
654 2 0.24983 0.349939 0.336595
662 2 0.449612 0.349735 0.337095
670 2 0.650344 0.349251 0.336897
678 2 0.849963 0.349945 0.336685
688 2 0.149954 0.449795 0.337212
696 2 0.350661 0.450131 0.336656
704 2 0.550429 0.449418 0.337098
712 2 0.749576 0.449676 0.336918
720 2 0.949778 0.449753 0.336787
686 2 0.0493551 0.549442 0.337228
694 2 0.250163 0.549987 0.336763
702 2 0.450286 0.550556 0.336588
710 2 0.650319 0.550248 0.337001
718 2 0.850163 0.549608 0.33682
728 2 0.149599 0.64988 0.337253
736 2 0.35047 0.650129 0.336764
744 2 0.549659 0.650571 0.336886
752 2 0.749724 0.650588 0.336767
760 2 0.950156 0.649821 0.336843
742 2 0.449624 0.749753 0.336996
750 2 0.649241 0.749639 0.336939
758 2 0.849807 0.749788 0.336768
726 2 0.0498608 0.750489 0.33699
734 2 0.24974 0.749516 0.337123
768 2 0.150159 0.85013 0.336816
776 2 0.350237 0.850411 0.336974
784 2 0.550596 0.850383 0.337322
792 2 0.750233 0.849472 0.33708
800 2 0.94921 0.850488 0.337052
766 2 0.0500427 0.949913 0.337193
774 2 0.249619 0.949844 0.337255
782 2 0.450674 0.94972 0.337017
790 2 0.649265 0.949582 0.33701
798 2 0.850474 0.949845 0.336979
607 2 0.0503079 0.049823 0.389009
602 1 0.099967 -0.000306904 0.362945
610 1 0.300066 0.000293647 0.362818
615 2 0.249948 0.0494606 0.38924
623 2 0.449398 0.0495348 0.388975
631 2 0.650448 0.0503042 0.389438
634 1 0.899416 0.000546378 0.363475
639 2 0.84968 0.0508904 0.389386
604 1 -0.000277323 0.0999251 0.363073
605 2 0.149444 0.149599 0.388852
612 1 0.200393 0.0998072 0.363161
620 1 0.399608 0.100196 0.362944
613 2 0.349674 0.150169 0.389072
621 2 0.54926 0.150037 0.388986
628 1 0.599979 0.0994925 0.36326
636 1 0.80008 0.0997483 0.362942
629 2 0.750081 0.149588 0.389076
637 2 0.949634 0.150437 0.389124
642 1 0.0993324 0.199508 0.363083
650 1 0.299462 0.200103 0.363262
663 2 0.450336 0.249728 0.38881
658 1 0.499993 0.200141 0.362832
671 2 0.649681 0.250245 0.389163
666 1 0.69979 0.199864 0.363143
674 1 0.900585 0.20018 0.362635
644 1 0.000482181 0.300088 0.363008
647 2 0.0498023 0.249691 0.389019
652 1 0.200367 0.299968 0.362737
655 2 0.249597 0.25006 0.389344
660 1 0.399382 0.300058 0.363127
668 1 0.599541 0.300324 0.362954
676 1 0.799419 0.300456 0.362895
679 2 0.850254 0.250079 0.38872
682 1 0.0999661 0.400273 0.363436
645 2 0.150334 0.349692 0.388903
690 1 0.300142 0.400341 0.362791
653 2 0.349264 0.350113 0.389133
698 1 0.499635 0.399952 0.363204
661 2 0.550319 0.350681 0.389062
706 1 0.699548 0.399812 0.363176
669 2 0.749462 0.349544 0.389439
714 1 0.899702 0.399992 0.362912
677 2 0.950181 0.35024 0.388978
684 1 -0.00115819 0.499949 0.363084
687 2 0.0496365 0.450732 0.388898
695 2 0.250688 0.450039 0.389216
700 1 0.400758 0.500351 0.362754
703 2 0.450308 0.45044 0.389454
708 1 0.60009 0.50046 0.363251
711 2 0.65003 0.450695 0.389185
716 1 0.800227 0.499438 0.363084
719 2 0.85034 0.449973 0.389347
685 2 0.150251 0.54961 0.389026
692 1 0.20065 0.499872 0.363102
693 2 0.350216 0.549379 0.388924
701 2 0.549581 0.55035 0.38933
709 2 0.749761 0.549491 0.389159
717 2 0.950146 0.550207 0.389468
727 2 0.0491131 0.650699 0.388968
722 1 0.0991899 0.59991 0.363278
735 2 0.250302 0.650137 0.388944
730 1 0.300233 0.599697 0.362921
738 1 0.499706 0.600419 0.362827
743 2 0.450227 0.650271 0.389155
751 2 0.649423 0.649879 0.389647
746 1 0.700147 0.600716 0.363272
754 1 0.900149 0.599469 0.363083
759 2 0.849703 0.649993 0.388804
732 1 0.199859 0.699887 0.363215
740 1 0.400244 0.699974 0.363093
733 2 0.350303 0.74974 0.389379
741 2 0.550261 0.750124 0.3894
748 1 0.599919 0.699945 0.363334
749 2 0.749148 0.749706 0.389294
756 1 0.799428 0.700463 0.362919
724 1 0.999234 0.700591 0.362887
762 1 0.100671 0.799658 0.36316
725 2 0.150345 0.749881 0.389346
770 1 0.30014 0.799955 0.362994
778 1 0.500629 0.799107 0.362773
786 1 0.699427 0.799562 0.362933
794 1 0.899064 0.800119 0.363046
757 2 0.949133 0.750101 0.38928
764 1 -0.000252035 0.899966 0.363234
767 2 0.0497527 0.849195 0.389019
772 1 0.19926 0.900184 0.363035
775 2 0.24969 0.85068 0.388942
780 1 0.400225 0.899659 0.363349
783 2 0.450574 0.849004 0.389061
788 1 0.599733 0.900492 0.36346
791 2 0.650096 0.850267 0.389125
796 1 0.799982 0.900488 0.362687
799 2 0.848922 0.850328 0.388965
765 2 0.149477 0.949315 0.389101
773 2 0.349253 0.94955 0.389013
618 1 0.500407 1.00019 0.363023
781 2 0.550224 0.950445 0.38913
626 1 0.699752 0.999787 0.363036
789 2 0.749915 0.949556 0.389003
797 2 0.950027 0.95036 0.389255
801 1 -0.000120534 0.000137369 0.415057
809 1 0.199368 -0.000599592 0.414984
817 1 0.39937 -0.000382649 0.41524
803 1 0.099993 0.100174 0.415238
811 1 0.300364 0.0994279 0.414848
819 1 0.499286 0.0996433 0.415135
827 1 0.700283 0.100342 0.415211
835 1 0.899903 0.100247 0.415166
841 1 6.31093e-05 0.199895 0.415342
849 1 0.198996 0.199578 0.415339
857 1 0.399887 0.200239 0.415122
865 1 0.599697 0.199958 0.414977
873 1 0.800175 0.199924 0.414732
843 1 0.0997317 0.300409 0.414955
851 1 0.299989 0.299926 0.415462
859 1 0.500444 0.299675 0.415204
867 1 0.699435 0.299505 0.415308
875 1 0.899864 0.300422 0.41538
881 1 0.000403007 0.400447 0.415009
889 1 0.199518 0.400607 0.414947
897 1 0.399564 0.399732 0.415092
905 1 0.600341 0.400679 0.415153
913 1 0.800425 0.399558 0.41518
891 1 0.300066 0.500224 0.415329
899 1 0.500546 0.499945 0.415495
907 1 0.700254 0.499576 0.415534
915 1 0.899693 0.50021 0.415113
883 1 0.0998407 0.499624 0.415334
929 1 0.200505 0.59995 0.415005
937 1 0.400472 0.599121 0.415146
945 1 0.599289 0.600031 0.415631
953 1 0.800321 0.599479 0.415067
921 1 1.0004 0.600207 0.415331
923 1 0.09935 0.700291 0.414852
931 1 0.299926 0.700064 0.415445
939 1 0.499983 0.70022 0.41513
947 1 0.699719 0.699718 0.415561
955 1 0.899303 0.699651 0.415419
961 1 -0.000389903 0.799928 0.415379
969 1 0.199916 0.800664 0.415307
977 1 0.39965 0.800312 0.415505
985 1 0.600042 0.800374 0.415201
993 1 0.799388 0.799821 0.415241
963 1 0.099263 0.899523 0.415322
971 1 0.300086 0.899689 0.415455
979 1 0.500262 0.899936 0.415128
987 1 0.700031 0.899736 0.415211
995 1 0.899763 0.899748 0.414905
825 1 0.600101 0.999997 0.415214
833 1 0.800223 1 0.415089
808 2 0.149902 0.0498006 0.441254
802 1 0.100291 0.000388747 0.467612
816 2 0.34975 0.0500303 0.441213
824 2 0.54982 0.0496977 0.441182
832 2 0.749359 0.0494964 0.441028
840 2 0.94995 0.0500276 0.441075
806 2 0.0499973 0.149979 0.441518
804 1 0.000104393 0.0994312 0.467554
812 1 0.199681 0.099847 0.467409
814 2 0.249604 0.148959 0.440869
820 1 0.39975 0.0995734 0.467598
822 2 0.449596 0.149732 0.441565
830 2 0.64949 0.149852 0.441049
828 1 0.600074 0.0997203 0.467313
836 1 0.798957 0.100029 0.466976
838 2 0.849416 0.150034 0.440979
842 1 0.100406 0.200355 0.467505
850 1 0.299157 0.199613 0.467072
856 2 0.349619 0.24992 0.441405
864 2 0.550086 0.249564 0.441169
858 1 0.500126 0.200483 0.467543
866 1 0.699499 0.200242 0.467069
872 2 0.750111 0.249604 0.440897
874 1 0.900334 0.199518 0.467136
848 2 0.149888 0.250904 0.44135
852 1 0.200579 0.300058 0.467427
860 1 0.399458 0.29931 0.467618
868 1 0.599688 0.299828 0.467515
876 1 0.800103 0.299753 0.467094
880 2 0.950408 0.25006 0.441264
844 1 1.00005 0.300027 0.467316
846 2 0.0504635 0.350711 0.441186
882 1 0.100136 0.400363 0.467776
854 2 0.249876 0.350722 0.441167
890 1 0.300057 0.399858 0.467528
862 2 0.449362 0.349235 0.441515
898 1 0.499709 0.399867 0.467612
870 2 0.649622 0.349456 0.441214
906 1 0.699191 0.40017 0.46724
878 2 0.849894 0.350177 0.441451
914 1 0.899932 0.399518 0.467299
888 2 0.150233 0.450493 0.441555
896 2 0.349726 0.449932 0.441483
900 1 0.399369 0.500593 0.467584
904 2 0.549767 0.449988 0.441422
908 1 0.600346 0.499898 0.467328
912 2 0.750768 0.44959 0.441516
916 1 0.800711 0.499845 0.467452
920 2 0.949726 0.450287 0.44122
886 2 0.0499262 0.550078 0.441291
894 2 0.250357 0.550125 0.441083
892 1 0.200752 0.500389 0.467213
902 2 0.450451 0.549317 0.441461
910 2 0.650181 0.55041 0.441147
918 2 0.850322 0.549849 0.441373
884 1 1.00021 0.499635 0.467555
928 2 0.149869 0.650426 0.440857
922 1 0.0996748 0.600722 0.467375
930 1 0.300288 0.599148 0.46755
936 2 0.350139 0.64928 0.441252
938 1 0.499437 0.599777 0.467511
944 2 0.549821 0.65062 0.441747
952 2 0.749954 0.649622 0.441135
946 1 0.69997 0.600194 0.467546
954 1 0.900249 0.599811 0.467477
960 2 0.949979 0.649526 0.441195
932 1 0.200326 0.699898 0.467218
940 1 0.400071 0.700449 0.467447
942 2 0.450466 0.750508 0.441134
950 2 0.649637 0.750442 0.441146
948 1 0.600564 0.700774 0.467612
956 1 0.799488 0.70002 0.467157
958 2 0.849382 0.750253 0.44143
924 1 0.99944 0.700012 0.467577
926 2 0.0498372 0.749831 0.441172
962 1 0.0997146 0.799656 0.467205
934 2 0.250345 0.75063 0.441432
970 1 0.30023 0.800447 0.467625
978 1 0.500268 0.799578 0.467715
986 1 0.699947 0.799956 0.467189
994 1 0.899352 0.800533 0.467309
968 2 0.149915 0.850459 0.441378
972 1 0.199854 0.900822 0.46731
976 2 0.349905 0.850147 0.441617
980 1 0.400305 0.899569 0.46737
984 2 0.549864 0.850223 0.44151
988 1 0.600459 0.900947 0.467148
992 2 0.749895 0.850164 0.441334
996 1 0.800338 0.899805 0.467198
1000 2 0.949745 0.850545 0.44139
964 1 1.00034 0.900102 0.467426
966 2 0.0502058 0.950627 0.44139
974 2 0.250154 0.950391 0.441174
810 1 0.300319 0.99958 0.4673
982 2 0.450307 0.950414 0.441554
818 1 0.500223 1.00045 0.467805
990 2 0.650636 0.95065 0.440971
826 1 0.699781 1.00038 0.467434
998 2 0.850474 0.949885 0.441361
834 1 0.899821 1.00043 0.46742
807 2 0.0498139 0.049256 0.493581
815 2 0.250538 0.0498121 0.493364
823 2 0.449516 0.049877 0.493758
831 2 0.649748 0.0503124 0.493821
839 2 0.849609 0.0505571 0.493371
805 2 0.150017 0.149685 0.493712
1003 1 0.0994343 0.0994939 0.519646
1011 1 0.300648 0.099953 0.519514
813 2 0.349806 0.150359 0.493382
821 2 0.549889 0.149651 0.493331
1019 1 0.499791 0.0999633 0.519852
1027 1 0.699485 0.100663 0.519772
829 2 0.74906 0.149849 0.493348
1035 1 0.900002 0.10021 0.519895
837 2 0.95003 0.15008 0.493617
847 2 0.0497188 0.250087 0.49364
855 2 0.250525 0.250011 0.49377
1049 1 0.199737 0.200316 0.519668
1057 1 0.400261 0.199609 0.519751
863 2 0.450277 0.250501 0.49382
871 2 0.650416 0.250025 0.493576