ITEM: TIMESTEP
300
ITEM: NUMBER OF ATOMS
1250
ITEM: BOX BOUNDS pp pp pp
0.0000000000000000e+00 3.7000000000000000e+01
0.0000000000000000e+00 3.7000000000000000e+01
-1.4800000000000001e+01 5.9200000000000003e+01
ITEM: ATOMS id type xs ys zs
1 1 0 0 0
8 2 0.15 0.05 0.025
9 1 0.2 0 0
16 2 0.35 0.05 0.025
17 1 0.4 0 0
24 2 0.55 0.05 0.025
25 1 0.6 0 0
32 2 0.75 0.05 0.025
33 1 0.8 0 0
40 2 0.95 0.05 0.025
3 1 0.1 0.1 0
11 1 0.3 0.1 0
19 1 0.5 0.1 0
27 1 0.7 0.1 0
35 1 0.9 0.1 0
6 2 0.05 0.15 0.025
41 1 0 0.2 0
49 1 0.2 0.2 0
14 2 0.25 0.15 0.025
57 1 0.4 0.2 0
22 2 0.45 0.15 0.025
65 1 0.6 0.2 0
30 2 0.65 0.15 0.025
38 2 0.85 0.15 0.025
73 1 0.8 0.2 0
48 2 0.15 0.25 0.025
56 2 0.35 0.25 0.025
64 2 0.55 0.25 0.025
72 2 0.75 0.25 0.025
80 2 0.95 0.25 0.025
46 2 0.05 0.35 0.025
43 1 0.1 0.3 0
54 2 0.25 0.35 0.025
51 1 0.3 0.3 0
62 2 0.45 0.35 0.025
59 1 0.5 0.3 0
67 1 0.7 0.3 0
70 2 0.65 0.35 0.025
78 2 0.85 0.35 0.025
75 1 0.9 0.3 0
81 1 0 0.4 0
89 1 0.2 0.4 0
97 1 0.4 0.4 0
105 1 0.6 0.4 0
113 1 0.8 0.4 0
88 2 0.15 0.45 0.025
96 2 0.35 0.45 0.025
104 2 0.55 0.45 0.025
112 2 0.75 0.45 0.025
120 2 0.95 0.45 0.025
86 2 0.05 0.55 0.025
83 1 0.1 0.5 0
94 2 0.25 0.55 0.025
91 1 0.3 0.5 0
102 2 0.45 0.55 0.025
99 1 0.5 0.5 0
107 1 0.7 0.5 0
110 2 0.65 0.55 0.025
118 2 0.85 0.55 0.025
115 1 0.9 0.5 0
121 1 0 0.6 0
129 1 0.2 0.6 0
137 1 0.4 0.6 0
145 1 0.6 0.6 0
153 1 0.8 0.6 0
123 1 0.1 0.7 0
128 2 0.15 0.65 0.025
131 1 0.3 0.7 0
136 2 0.35 0.65 0.025
139 1 0.5 0.7 0
144 2 0.55 0.65 0.025
147 1 0.7 0.7 0
152 2 0.75 0.65 0.025
155 1 0.9 0.7 0
160 2 0.95 0.65 0.025
126 2 0.05 0.75 0.025
134 2 0.25 0.75 0.025
142 2 0.45 0.75 0.025
150 2 0.65 0.75 0.025
158 2 0.85 0.75 0.025
161 1 0 0.8 0
168 2 0.15 0.85 0.025
169 1 0.2 0.8 0
176 2 0.35 0.85 0.025
177 1 0.4 0.8 0
184 2 0.55 0.85 0.025
185 1 0.6 0.8 0
192 2 0.75 0.85 0.025
193 1 0.8 0.8 0
200 2 0.95 0.85 0.025
163 1 0.1 0.9 0
171 1 0.3 0.9 0
179 1 0.5 0.9 0
187 1 0.7 0.9 0
195 1 0.9 0.9 0
166 2 0.05 0.95 0.025
174 2 0.25 0.95 0.025
182 2 0.45 0.95 0.025
190 2 0.65 0.95 0.025
198 2 0.85 0.95 0.025
7 2 0.0500077 0.0500639 0.0703816
2 1 0.1 0 0.05
15 2 0.249956 0.0500027 0.0704062
10 1 0.3 0 0.05
23 2 0.450039 0.0500208 0.0704116
18 1 0.5 0 0.05
26 1 0.7 0 0.05
31 2 0.650031 0.0500038 0.0703802
39 2 0.850049 0.0500141 0.0703894
34 1 0.9 0 0.05
4 1 0 0.1 0.05
12 1 0.2 0.1 0.05
20 1 0.4 0.1 0.05
28 1 0.6 0.1 0.05
36 1 0.8 0.1 0.05
42 1 0.1 0.2 0.05
5 2 0.149948 0.150014 0.0703553
50 1 0.3 0.2 0.05
13 2 0.349968 0.150028 0.0704128
58 1 0.5 0.2 0.05
21 2 0.550017 0.150034 0.0703548
66 1 0.7 0.2 0.05
29 2 0.750064 0.149955 0.0703625
74 1 0.9 0.2 0.05
37 2 0.950025 0.14993 0.0704136
47 2 0.0499419 0.250051 0.0703407
55 2 0.249981 0.250059 0.0704167
63 2 0.449986 0.249966 0.070392
71 2 0.650065 0.249924 0.0703728
79 2 0.849947 0.250056 0.0703656
44 1 0 0.3 0.05
52 1 0.2 0.3 0.05
45 2 0.149924 0.350064 0.0703547
53 2 0.349969 0.349997 0.0703566
60 1 0.4 0.3 0.05
61 2 0.550072 0.349997 0.0703779
68 1 0.6 0.3 0.05
69 2 0.750017 0.349924 0.0703725
76 1 0.8 0.3 0.05
77 2 0.949997 0.350045 0.0704044
82 1 0.1 0.4 0.05
90 1 0.3 0.4 0.05
98 1 0.5 0.4 0.05
106 1 0.7 0.4 0.05
114 1 0.9 0.4 0.05
87 2 0.0499434 0.449947 0.0703708
95 2 0.250055 0.450033 0.0703978
103 2 0.44996 0.449992 0.0703462
111 2 0.650027 0.449921 0.0703785
119 2 0.85002 0.449917 0.0703565
84 1 0 0.5 0.05
92 1 0.2 0.5 0.05
85 2 0.149925 0.549977 0.0703792
93 2 0.349979 0.55005 0.0703887
100 1 0.4 0.5 0.05
101 2 0.550024 0.550077 0.0704124
108 1 0.6 0.5 0.05
109 2 0.750064 0.549938 0.07041
116 1 0.8 0.5 0.05
117 2 0.950009 0.550074 0.0703601
122 1 0.1 0.6 0.05
130 1 0.3 0.6 0.05
138 1 0.5 0.6 0.05
146 1 0.7 0.6 0.05
154 1 0.9 0.6 0.05
124 1 0 0.7 0.05
127 2 0.0500784 0.650057 0.0703487
132 1 0.2 0.7 0.05
135 2 0.249961 0.649982 0.0703951
140 1 0.4 0.7 0.05
143 2 0.45001 0.65006 0.0703551
148 1 0.6 0.7 0.05
151 2 0.64994 0.65001 0.0703471
156 1 0.8 0.7 0.05
159 2 0.850018 0.650042 0.0704026
125 2 0.150082 0.750008 0.070412
133 2 0.350009 0.749951 0.0703634
141 2 0.54995 0.750046 0.0704071
149 2 0.749982 0.750015 0.0703725
157 2 0.950005 0.750053 0.0703763
167 2 0.0499981 0.850079 0.070353
162 1 0.1 0.8 0.05
175 2 0.25005 0.84999 0.0704038
170 1 0.3 0.8 0.05
183 2 0.450053 0.850072 0.070368
178 1 0.5 0.8 0.05
186 1 0.7 0.8 0.05
191 2 0.650045 0.849923 0.0704084
199 2 0.850071 0.849998 0.0704036
194 1 0.9 0.8 0.05
164 1 0 0.9 0.05
172 1 0.2 0.9 0.05
180 1 0.4 0.9 0.05
188 1 0.6 0.9 0.05
196 1 0.8 0.9 0.05
165 2 0.149922 0.94997 0.0704129
173 2 0.349995 0.949985 0.0704012
181 2 0.549934 0.949977 0.0703717
189 2 0.750057 0.950014 0.0703563
197 2 0.949941 0.949966 0.0703599
209 1 0.200004 -5.67574e-05 0.0908404
217 1 0.399937 7.23482e-05 0.090863
233 1 0.800065 -3.08439e-05 0.0908067
201 1 1.00002 4.17828e-05 0.0908694
203 1 0.100066 0.100013 0.0908153
211 1 0.300014 0.100029 0.0908507
219 1 0.500047 0.100078 0.0908076
227 1 0.700021 0.100053 0.090814
235 1 0.900048 0.100003 0.0908131
249 1 0.200077 0.199928 0.0908392
257 1 0.400032 0.200009 0.0908774
265 1 0.599971 0.200061 0.0908578
273 1 0.799949 0.200058 0.0908168
241 1 1 0.200046 0.090849
243 1 0.0999616 0.299922 0.0908727
251 1 0.29995 0.299971 0.090806
259 1 0.500006 0.29993 0.0908286
267 1 0.700067 0.299979 0.0908514
275 1 0.900039 0.300043 0.0908639
281 1 1.06019e-06 0.399923 0.0908229
289 1 0.200009 0.399984 0.0908607
297 1 0.400043 0.400011 0.0908093
305 1 0.600026 0.399914 0.0908908
313 1 0.80003 0.39999 0.0908822
283 1 0.100006 0.500066 0.0908099
291 1 0.299916 0.499997 0.0908572
299 1 0.500072 0.500061 0.0908802
307 1 0.70004 0.500053 0.0908368
315 1 0.899959 0.499921 0.0908605
321 1 -3.48248e-05 0.600079 0.0908588
329 1 0.199949 0.599958 0.0908592
337 1 0.400056 0.600042 0.090887
345 1 0.600084 0.59992 0.0908484
353 1 0.799926 0.599977 0.0908324
323 1 0.100005 0.699998 0.090817
331 1 0.300038 0.699981 0.0908062
339 1 0.499934 0.700085 0.0908813
347 1 0.700069 0.699964 0.0908853
355 1 0.899975 0.700002 0.090863
361 1 3.79222e-05 0.800016 0.0908509
369 1 0.200086 0.800078 0.0908399
377 1 0.399943 0.800048 0.0908498
385 1 0.599969 0.80004 0.0908808
393 1 0.799945 0.799988 0.0908656
363 1 0.0999678 0.89992 0.0908229
371 1 0.300009 0.899996 0.0908911
379 1 0.499995 0.899922 0.0908657
387 1 0.700058 0.900006 0.0908285
395 1 0.899943 0.899946 0.0908451
225 1 0.599928 0.999936 0.0908393
208 2 0.149929 0.0500501 0.111275
216 2 0.350008 0.0500662 0.111287
210 1 0.299933 6.00996e-05 0.13178
218 1 0.499957 9.3715e-06 0.13176
224 2 0.549932 0.0500523 0.111349
226 1 0.699986 -5.94148e-05 0.131743
232 2 0.750021 0.0500475 0.111314
234 1 0.900075 -8.03598e-05 0.131744
240 2 0.950008 0.0500536 0.111285
212 1 0.199976 0.100047 0.131808
220 1 0.399977 0.0999199 0.131733
228 1 0.599958 0.100026 0.131773
236 1 0.799968 0.0999747 0.131751
204 1 0.999938 0.100001 0.131766
206 2 0.0500507 0.150021 0.111291
242 1 0.10008 0.199974 0.131775
214 2 0.250001 0.150049 0.111308
250 1 0.300031 0.19998 0.13181
222 2 0.449969 0.149964 0.111274
258 1 0.499942 0.200002 0.131773
230 2 0.65003 0.149982 0.111282
266 1 0.700018 0.200015 0.131728
238 2 0.849931 0.149967 0.111349
274 1 0.899915 0.199966 0.131785
248 2 0.149949 0.250053 0.111285
256 2 0.350022 0.24999 0.111306
264 2 0.549998 0.250002 0.111308
272 2 0.750023 0.249927 0.111305
280 2 0.950001 0.249935 0.111282
246 2 0.0500707 0.349944 0.111287
244 1 -5.72905e-06 0.299961 0.131738
252 1 0.200006 0.300074 0.131753
254 2 0.249954 0.350031 0.111283
260 1 0.40008 0.299924 0.131807
262 2 0.449957 0.350011 0.111341
268 1 0.599985 0.300063 0.131779
270 2 0.650045 0.350063 0.111317
278 2 0.849976 0.35007 0.111284
276 1 0.800015 0.300046 0.131787
282 1 0.100042 0.399933 0.1318
290 1 0.299956 0.399915 0.131788
298 1 0.500017 0.39996 0.131801
306 1 0.700012 0.399923 0.131759
314 1 0.899956 0.399976 0.131773
284 1 -1.1351e-05 0.499968 0.131761
288 2 0.150056 0.449955 0.111337
296 2 0.349991 0.45 0.111349
304 2 0.55 0.449992 0.111298
312 2 0.750049 0.450005 0.111294
320 2 0.949965 0.450049 0.11133
286 2 0.0499947 0.549955 0.111276
292 1 0.200065 0.499917 0.131751
294 2 0.249933 0.549986 0.111271
300 1 0.400036 0.500081 0.131762
302 2 0.450045 0.550059 0.111333
308 1 0.600026 0.499968 0.131761
310 2 0.649967 0.550014 0.111286
318 2 0.849971 0.550035 0.111269
316 1 0.799983 0.500044 0.131745
322 1 0.100054 0.600022 0.131808
330 1 0.30003 0.600079 0.131766
338 1 0.50005 0.59996 0.131733
346 1 0.700028 0.600074 0.131746
354 1 0.899925 0.599911 0.131808
324 1 8.54266e-05 0.699949 0.131763
328 2 0.150017 0.650051 0.111299
332 1 0.200046 0.700018 0.131781
336 2 0.349975 0.65004 0.11135
340 1 0.399941 0.699926 0.131783
344 2 0.549979 0.649933 0.111295
348 1 0.600002 0.699935 0.131777
352 2 0.749949 0.649972 0.111298
356 1 0.80006 0.700033 0.131811
360 2 0.949926 0.650035 0.111293
326 2 0.0499295 0.749966 0.111277
334 2 0.250047 0.750051 0.111324
342 2 0.450049 0.750027 0.111351
350 2 0.650074 0.749995 0.111342
358 2 0.850071 0.750022 0.111279
362 1 0.10003 0.800044 0.131778
368 2 0.150016 0.849979 0.111282
376 2 0.349942 0.850036 0.111333
370 1 0.299976 0.799978 0.131785
384 2 0.550082 0.85008 0.111288
378 1 0.500028 0.80002 0.131809
386 1 0.700085 0.799985 0.131803
392 2 0.750019 0.850062 0.111346
394 1 0.899952 0.799929 0.131779
400 2 0.950056 0.849954 0.111342
364 1 5.0026e-05 0.899992 0.131755
372 1 0.199926 0.9 0.131806
380 1 0.400084 0.899989 0.131779
388 1 0.600085 0.900006 0.131767
396 1 0.80003 0.899939 0.131807
366 2 0.0500042 0.950066 0.111295
202 1 0.100016 1.00002 0.131797
374 2 0.249932 0.949936 0.111302
382 2 0.450014 0.950074 0.111273
390 2 0.649924 0.949984 0.111294
398 2 0.850053 0.95004 0.1113
207 2 0.0500253 0.0499913 0.152203
401 1 -4.77408e-05 -1.71381e-05 0.172713
215 2 0.25003 0.0499483 0.152205
417 1 0.399956 -5.04031e-05 0.172724
223 2 0.450073 0.0499276 0.152211
425 1 0.599947 3.87996e-05 0.172666
231 2 0.649978 0.0500278 0.152241
239 2 0.850005 0.0499419 0.152189
433 1 0.799926 4.55303e-05 0.172668
403 1 0.100005 0.100029 0.172732
411 1 0.299916 0.0999628 0.172727
419 1 0.500032 0.0999921 0.172703
427 1 0.699919 0.100059 0.17267
435 1 0.899951 0.0999517 0.172691
441 1 -6.38167e-05 0.19992 0.172677
205 2 0.150054 0.150018 0.152235
449 1 0.199991 0.199989 0.172725
213 2 0.350038 0.149978 0.152257
457 1 0.399986 0.200082 0.172734
221 2 0.549919 0.150028 0.152252
465 1 0.599916 0.200071 0.172729
229 2 0.750002 0.149954 0.152208
473 1 0.799989 0.200041 0.172664
237 2 0.949946 0.149931 0.152245
247 2 0.0500651 0.250021 0.152244
255 2 0.249984 0.249948 0.15225
263 2 0.449957 0.249991 0.152211
271 2 0.650073 0.24994 0.152238
279 2 0.849936 0.250013 0.152201
443 1 0.0999553 0.300033 0.172705
245 2 0.149957 0.350063 0.1522
253 2 0.350067 0.349948 0.152261
451 1 0.300009 0.299919 0.172699
261 2 0.550006 0.349964 0.152214
459 1 0.499993 0.300004 0.172658
467 1 0.699988 0.299925 0.172711
269 2 0.750027 0.350014 0.152193
475 1 0.899988 0.299933 0.172706
277 2 0.950016 0.349999 0.15222
481 1 7.11637e-05 0.399989 0.17267
489 1 0.199918 0.399947 0.172725
497 1 0.399979 0.400069 0.172731
505 1 0.600005 0.400012 0.172702
513 1 0.800011 0.399978 0.172661
287 2 0.0500062 0.449998 0.152233
483 1 0.0999437 0.500069 0.172724
295 2 0.249927 0.450077 0.152264
303 2 0.450039 0.450011 0.152221
311 2 0.649948 0.449994 0.152208
319 2 0.84997 0.450006 0.152249
285 2 0.149932 0.549987 0.152268
293 2 0.350081 0.550071 0.152214
491 1 0.300012 0.499996 0.172688
301 2 0.549991 0.55 0.152251
499 1 0.500084 0.499949 0.172711
507 1 0.699935 0.500044 0.172654
309 2 0.749984 0.549949 0.152269
515 1 0.899944 0.499939 0.172707
317 2 0.95008 0.549938 0.152248
521 1 7.27265e-05 0.599932 0.172682
529 1 0.200007 0.599971 0.172732
537 1 0.399937 0.599988 0.172669
545 1 0.600023 0.599956 0.172649
553 1 0.799975 0.60003 0.172691
327 2 0.049988 0.650001 0.152192
523 1 0.100084 0.700065 0.172677
335 2 0.250045 0.649933 0.152267
531 1 0.299936 0.699915 0.17272
343 2 0.450042 0.649954 0.15219
539 1 0.500072 0.700078 0.172715
351 2 0.649927 0.650042 0.152248
547 1 0.69998 0.700069 0.172674
359 2 0.850037 0.649946 0.152228
555 1 0.900052 0.700052 0.172666
325 2 0.150028 0.750038 0.152203
333 2 0.350028 0.74992 0.152224
341 2 0.549998 0.749942 0.152246
349 2 0.750041 0.750032 0.152266
357 2 0.950041 0.749941 0.152193
367 2 0.0500507 0.84993 0.152209
561 1 8.10511e-05 0.800011 0.172656
569 1 0.199974 0.799956 0.172722
375 2 0.249942 0.849948 0.152201
577 1 0.400052 0.800011 0.172689
383 2 0.449964 0.849996 0.152226
585 1 0.600021 0.800076 0.172726
391 2 0.650079 0.85002 0.152255
399 2 0.850073 0.849934 0.152273
593 1 0.800087 0.800061 0.172719
563 1 0.100082 0.899933 0.172695
571 1 0.299924 0.89997 0.172679
579 1 0.500012 0.899956 0.172662
587 1 0.70001 0.900011 0.172731
595 1 0.90007 0.900079 0.17273
365 2 0.150018 0.949982 0.152212
409 1 0.199959 1.00001 0.172721
373 2 0.349945 0.950034 0.152231
381 2 0.549977 0.949956 0.152206
389 2 0.74993 0.950044 0.152258
397 2 0.94993 0.949926 0.152241
402 1 0.0999462 -6.7162e-05 0.213588
408 2 0.150006 0.0500453 0.193184
416 2 0.349938 0.0500177 0.193173
410 1 0.30004 6.27403e-05 0.213624
418 1 0.500069 -6.94167e-05 0.213618
424 2 0.550062 0.0499295 0.193151
426 1 0.69993 5.036e-06 0.21358
432 2 0.750028 0.0500626 0.193142
434 1 0.899925 -6.81194e-05 0.213589
440 2 0.949942 0.0499251 0.193187
412 1 0.200046 0.100034 0.213647
420 1 0.400056 0.100068 0.213615
428 1 0.600021 0.100084 0.213584
436 1 0.799969 0.100001 0.213631
404 1 0.999925 0.100035 0.213584
406 2 0.049994 0.149953 0.193149
442 1 0.0999347 0.200073 0.213647
414 2 0.249968 0.150071 0.193163
450 1 0.300031 0.200042 0.213614
422 2 0.449937 0.149963 0.193139
458 1 0.499956 0.200026 0.213622
430 2 0.64995 0.150078 0.19313
466 1 0.699996 0.199917 0.213608
438 2 0.850071 0.15001 0.193185
474 1 0.899997 0.199957 0.213654
448 2 0.150022 0.249971 0.193112
456 2 0.349989 0.249982 0.193188
464 2 0.55 0.249997 0.193163
472 2 0.750043 0.250005 0.193127
480 2 0.950075 0.250071 0.193138
446 2 0.0500465 0.349928 0.193127
444 1 -2.40573e-05 0.300041 0.213595
452 1 0.200026 0.300057 0.213652
454 2 0.249953 0.349983 0.193122
460 1 0.400087 0.299968 0.213586
462 2 0.449984 0.350057 0.193165
468 1 0.599927 0.300018 0.213633
470 2 0.650053 0.349928 0.19316
478 2 0.849986 0.350056 0.193122
476 1 0.800004 0.299932 0.213627
482 1 0.100047 0.399969 0.213578
490 1 0.30002 0.40005 0.213599
498 1 0.499972 0.400067 0.213649
506 1 0.699924 0.399942 0.213609
514 1 0.899961 0.400037 0.213611
484 1 9.65138e-06 0.499955 0.213632
488 2 0.149978 0.450045 0.193178
496 2 0.34996 0.449983 0.193158
500 1 0.399972 0.499988 0.213611
504 2 0.549933 0.449917 0.193183
512 2 0.749999 0.449977 0.193176
516 1 0.800087 0.499929 0.213586
520 2 0.950034 0.450017 0.193117
486 2 0.0500162 0.550008 0.193148
492 1 0.199972 0.499934 0.213577
494 2 0.249929 0.550062 0.193152
502 2 0.449949 0.550063 0.193161
508 1 0.599994 0.499913 0.213573
510 2 0.649936 0.549936 0.193187
518 2 0.849959 0.550023 0.193188
522 1 0.100035 0.600013 0.213647
530 1 0.29998 0.599982 0.213612
538 1 0.499956 0.599938 0.213632
546 1 0.700053 0.600005 0.213596
554 1 0.900043 0.600068 0.213621
524 1 1.78615e-05 0.700012 0.213623
528 2 0.149995 0.649953 0.193146
532 1 0.199927 0.699925 0.213608
536 2 0.350035 0.649986 0.193122
540 1 0.39999 0.7 0.213617
544 2 0.550076 0.650068 0.193137
548 1 0.599976 0.699952 0.213624
552 2 0.75006 0.650039 0.193118
556 1 0.799915 0.700075 0.213626
560 2 0.950061 0.649921 0.193158
526 2 0.049969 0.750012 0.193153
534 2 0.249939 0.749969 0.193178
542 2 0.449933 0.750058 0.193191
550 2 0.650073 0.749922 0.193146
558 2 0.850026 0.749962 0.193124
562 1 0.100016 0.799959 0.213634
568 2 0.150016 0.850067 0.193161
576 2 0.349987 0.850003 0.19318
570 1 0.299961 0.799936 0.213615
578 1 0.500032 0.799966 0.213576
584 2 0.55005 0.849966 0.193141
586 1 0.700032 0.800001 0.213604
592 2 0.750041 0.849989 0.193122
594 1 0.90004 0.799942 0.213597
600 2 0.949993 0.850052 0.193124
564 1 3.60487e-05 0.899987 0.213608
572 1 0.199975 0.899926 0.213615
580 1 0.400088 0.900034 0.213586
588 1 0.600023 0.90003 0.213617
596 1 0.800084 0.89997 0.213574
566 2 0.0499934 0.949962 0.193166
574 2 0.25008 0.949951 0.19313
582 2 0.450015 0.949928 0.193123
590 2 0.649998 0.949922 0.193151
598 2 0.84998 0.950032 0.193133
407 2 0.0499778 0.0500461 0.234087
415 2 0.24993 0.0499785 0.234096
423 2 0.450028 0.0500489 0.234106
431 2 0.649978 0.0499852 0.234111
439 2 0.850046 0.049972 0.234085
405 2 0.149997 0.149977 0.234057
413 2 0.350034 0.150022 0.234064
421 2 0.549939 0.150015 0.234051
429 2 0.750071 0.14996 0.234079
437 2 0.950005 0.150004 0.234114
447 2 0.0500133 0.249958 0.234083
455 2 0.250074 0.249974 0.23405
463 2 0.449966 0.249923 0.234093
471 2 0.649927 0.249937 0.234056
479 2 0.850013 0.250042 0.23405
445 2 0.149989 0.350055 0.234047
453 2 0.349993 0.350043 0.234089
461 2 0.549984 0.350043 0.234043
469 2 0.75 0.350068 0.234059
477 2 0.949985 0.349933 0.234082
487 2 0.0499651 0.449971 0.234114
495 2 0.24992 0.449959 0.234034
503 2 0.450051 0.450032 0.234035
511 2 0.650056 0.45008 0.234094
519 2 0.850058 0.44999 0.234105
485 2 0.149961 0.550043 0.234102
493 2 0.350027 0.550031 0.234087
501 2 0.550019 0.549938 0.2341
509 2 0.750041 0.549963 0.234055
517 2 0.949969 0.550056 0.234103
527 2 0.0500488 0.649939 0.234105
535 2 0.24993 0.650031 0.234105
543 2 0.450083 0.650024 0.234077
551 2 0.650073 0.649971 0.234078
559 2 0.849975 0.649996 0.234042
525 2 0.149948 0.749988 0.234114
533 2 0.350022 0.750081 0.234037
541 2 0.549963 0.75001 0.2341
549 2 0.749972 0.749971 0.234079
557 2 0.949923 0.750076 0.234078
567 2 0.0500207 0.850059 0.234088
575 2 0.249985 0.849965 0.234052
583 2 0.450083 0.849951 0.234034
591 2 0.649989 0.849979 0.234073
599 2 0.849959 0.850049 0.234059
565 2 0.150063 0.950004 0.234099
573 2 0.350035 0.950019 0.23409
581 2 0.549999 0.949965 0.23411
589 2 0.749955 0.949941 0.234055
597 2 0.950066 0.950079 0.234084
601 1 -2.73035e-05 6.12878e-05 0.254554
609 1 0.199937 -7.82458e-06 0.254565
608 2 0.149945 0.0500768 0.275027
616 2 0.350007 0.0500045 0.274954
624 2 0.549948 0.0499392 0.275022
625 1 0.599997 5.13171e-05 0.254515
632 2 0.75001 0.0499749 0.274987
633 1 0.799955 -6.81892e-05 0.254553
640 2 0.950052 0.0499557 0.275028
603 1 0.10007 0.100061 0.254537
611 1 0.29992 0.100006 0.25457
619 1 0.499915 0.0999173 0.254497
627 1 0.699923 0.0999187 0.254557
635 1 0.900072 0.100049 0.254555
606 2 0.0499616 0.149944 0.275018
649 1 0.200017 0.200037 0.25451
614 2 0.25007 0.150052 0.27497
657 1 0.400086 0.20006 0.254504
622 2 0.450049 0.150036 0.275029
665 1 0.599977 0.200075 0.254502
630 2 0.64992 0.149975 0.274955
673 1 0.800081 0.200054 0.254562
638 2 0.849988 0.149958 0.275008
641 1 0.999969 0.200006 0.254567
648 2 0.149934 0.249959 0.275035
656 2 0.350028 0.249953 0.275009
664 2 0.549932 0.250015 0.275033
672 2 0.749989 0.24994 0.275014
680 2 0.950055 0.250044 0.275
646 2 0.0499906 0.34999 0.275024
643 1 0.100088 0.299999 0.254512
654 2 0.24994 0.349952 0.274954
651 1 0.299964 0.299992 0.25453
659 1 0.499992 0.299965 0.254502
662 2 0.449948 0.349967 0.275029
667 1 0.700034 0.299994 0.254546
670 2 0.650022 0.349932 0.274981
678 2 0.850016 0.349995 0.274973
675 1 0.900009 0.299919 0.254556
681 1 3.73926e-05 0.400028 0.254574
689 1 0.200008 0.399924 0.254492
697 1 0.400003 0.400014 0.254509
705 1 0.600061 0.399973 0.254568
713 1 0.800032 0.400083 0.254522
688 2 0.149937 0.450009 0.275021
696 2 0.350067 0.449994 0.274966
704 2 0.550037 0.449929 0.274987
712 2 0.749936 0.449963 0.274977
715 1 0.900053 0.500001 0.254525
720 2 0.949988 0.449973 0.274965
686 2 0.0499292 0.549954 0.275027
683 1 0.100009 0.499929 0.254556
694 2 0.250056 0.549995 0.274985
691 1 0.299961 0.499985 0.254526
702 2 0.45005 0.550046 0.274965
699 1 0.499967 0.499978 0.254558
707 1 0.700034 0.499991 0.254533
710 2 0.650011 0.549994 0.274991
718 2 0.85001 0.549973 0.274976
721 1 7.22123e-05 0.599997 0.254508
729 1 0.199948 0.600048 0.254517
737 1 0.400002 0.599984 0.254494
745 1 0.600004 0.600073 0.254547
753 1 0.800056 0.60004 0.254541
723 1 0.0999785 0.699997 0.254552
728 2 0.149972 0.649984 0.275011
731 1 0.300081 0.699981 0.254514
736 2 0.350039 0.650047 0.274966
739 1 0.500012 0.700084 0.254548
744 2 0.549945 0.65002 0.274976
747 1 0.699941 0.700033 0.254493
752 2 0.749988 0.650044 0.274994
755 1 0.900005 0.699915 0.254546
760 2 0.950016 0.650045 0.274978
726 2 0.0499739 0.750053 0.274977
734 2 0.249937 0.749964 0.275031
742 2 0.449961 0.74994 0.27501
750 2 0.649928 0.749961 0.275007
758 2 0.849981 0.749989 0.274986
761 1 6.0598e-05 0.800073 0.254574
769 1 0.199978 0.799944 0.25453
768 2 0.150021 0.850047 0.274969
776 2 0.35003 0.850031 0.275014
777 1 0.400054 0.800062 0.254527
784 2 0.550055 0.850038 0.275034
785 1 0.599989 0.800024 0.254535
792 2 0.750013 0.849966 0.275005
793 1 0.800018 0.799999 0.254517
800 2 0.949936 0.850053 0.274996
763 1 0.10005 0.90006 0.254564
771 1 0.300034 0.900074 0.254509
779 1 0.500082 0.899987 0.254515
787 1 0.700002 0.899926 0.254553
795 1 0.899923 0.899922 0.254507
766 2 0.0500588 0.950004 0.27503
774 2 0.249963 0.949985 0.275034
617 1 0.399992 0.999914 0.254497
782 2 0.450078 0.950004 0.274997
790 2 0.649919 0.949943 0.275008
798 2 0.850012 0.949952 0.275006
607 2 0.0500489 0.0499619 0.315909
615 2 0.249996 0.0499845 0.315934
618 1 0.500079 5.05013e-05 0.295428
623 2 0.449956 0.0499689 0.31591
626 1 0.700008 -2.37431e-05 0.295455
631 2 0.650032 0.0500786 0.31594
639 2 0.849969 0.0500819 0.31595
634 1 0.899944 7.11065e-05 0.295491
612 1 0.200002 0.0999355 0.29548
620 1 0.399966 0.100024 0.295452
628 1 0.600036 0.099921 0.295486
636 1 0.800048 0.099972 0.295438
604 1 0.999979 0.0999951 0.295414
642 1 0.099957 0.199979 0.295463
605 2 0.149922 0.149947 0.315886
650 1 0.299925 0.199999 0.295482
613 2 0.349959 0.150004 0.315915
658 1 0.499981 0.200037 0.295426
621 2 0.549925 0.150015 0.315906
666 1 0.700032 0.200043 0.295465
629 2 0.749978 0.149948 0.315937
674 1 0.90008 0.200004 0.295421
637 2 0.949931 0.15006 0.31592
647 2 0.0499838 0.249964 0.315889
655 2 0.249996 0.250006 0.315914
663 2 0.450048 0.249926 0.315882
671 2 0.650008 0.250013 0.315948
679 2 0.850009 0.249971 0.315887
652 1 0.200057 0.300026 0.295417
645 2 0.15002 0.349968 0.315902
653 2 0.349953 0.350045 0.315924
660 1 0.399949 0.300032 0.295438
661 2 0.550046 0.35008 0.315883
668 1 0.599917 0.300059 0.295436
669 2 0.74997 0.349934 0.315945
676 1 0.799921 0.300061 0.295441
644 1 1.00007 0.299997 0.295435
677 2 0.950009 0.35004 0.315901
682 1 0.100011 0.400047 0.295498
690 1 0.30003 0.400061 0.295467
698 1 0.499981 0.39997 0.295482
706 1 0.69997 0.399998 0.295455
714 1 0.899979 0.399979 0.295442
687 2 0.049971 0.450062 0.315889
695 2 0.250071 0.449978 0.315922
703 2 0.450047 0.450031 0.315953
711 2 0.649957 0.45007 0.315924
719 2 0.850045 0.450045 0.315957
684 1 -7.51148e-05 0.500006 0.295464
692 1 0.200026 0.500021 0.295483
685 2 0.150069 0.549957 0.315882
693 2 0.350033 0.549938 0.315888
700 1 0.400025 0.500067 0.295435
701 2 0.549978 0.550008 0.315951
708 1 0.600058 0.500029 0.295493
709 2 0.749966 0.549966 0.315922
716 1 0.800051 0.499955 0.29547
717 2 0.950009 0.550016 0.315934
722 1 0.0999206 0.600006 0.295474
730 1 0.299977 0.599935 0.295456
738 1 0.499941 0.60005 0.295416
746 1 0.700043 0.600076 0.295477
754 1 0.899999 0.599923 0.29548
724 1 -6.504e-05 0.70001 0.295445
727 2 0.0499467 0.65008 0.315902
732 1 0.200027 0.700009 0.295471
735 2 0.249993 0.650008 0.315887
740 1 0.400053 0.700019 0.295446
743 2 0.450059 0.650063 0.31592
748 1 0.600044 0.700025 0.295477
751 2 0.649939 0.649998 0.315957
756 1 0.799949 0.700035 0.295433
759 2 0.849983 0.649996 0.315891
725 2 0.150009 0.749988 0.315927
733 2 0.350042 0.749961 0.315951
741 2 0.550019 0.750025 0.315954
749 2 0.749932 0.749982 0.315935
757 2 0.949938 0.75001 0.315926
767 2 0.0499796 0.849927 0.315895
762 1 0.100054 0.799954 0.295495
775 2 0.249956 0.850077 0.315897
770 1 0.300015 0.800004 0.295429
783 2 0.450046 0.849939 0.315905
778 1 0.500062 0.799916 0.295423
786 1 0.699954 0.79995 0.295437
791 2 0.650031 0.850045 0.315931
799 2 0.849935 0.850056 0.315902
794 1 0.899915 0.799999 0.295456
764 1 -2.27368e-05 0.899987 0.295477
772 1 0.199915 0.900041 0.295467
780 1 0.39997 0.899943 0.295494
788 1 0.599935 0.900085 0.295491
796 1 0.800031 0.900076 0.295417
602 1 0.099944 0.999971 0.295419
765 2 0.150046 0.949942 0.315912
610 1 0.300006 1.00002 0.295432
773 2 0.349925 0.94994 0.315897
781 2 0.550066 0.95002 0.315898
789 2 0.749977 0.949946 0.315896
797 2 0.950054 0.950058 0.315945
808 2 0.149986 0.0499741 0.356846
816 2 0.349965 0.0500108 0.356809
817 1 0.399946 -4.55901e-07 0.336393
824 2 0.54998 0.0499465 0.356817
825 1 0.599992 -3.8548e-05 0.336398
832 2 0.749928 0.0499458 0.356828
833 1 0.800041 5.74713e-05 0.336353
840 2 0.950013 0.0500027 0.356807
803 1 0.100026 0.100048 0.33637
811 1 0.300072 0.0999226 0.336335
819 1 0.499941 0.0999689 0.336368
827 1 0.700049 0.100037 0.336354
835 1 0.899986 0.0999896 0.336361
806 2 0.0499798 0.149999 0.356849
849 1 0.199925 0.199943 0.336417
814 2 0.249941 0.149931 0.356803
857 1 0.399993 0.200037 0.336356
822 2 0.449938 0.149924 0.35686
865 1 0.599989 0.200028 0.336364
830 2 0.649939 0.149974 0.356819
838 2 0.849923 0.150012 0.356802
873 1 0.800034 0.199982 0.336346
841 1 0.999998 0.199996 0.336405
848 2 0.150008 0.250069 0.356856
856 2 0.349944 0.25003 0.356844
864 2 0.549964 0.249951 0.356803
872 2 0.749994 0.249957 0.356801
880 2 0.95008 0.250009 0.356841
846 2 0.0500674 0.350079 0.356799
843 1 0.0999615 0.300078 0.336362
854 2 0.250006 0.350054 0.356831
851 1 0.300035 0.299961 0.336418
862 2 0.449932 0.349928 0.35687
859 1 0.500073 0.299917 0.336407
867 1 0.699923 0.299957 0.336378
870 2 0.649998 0.349924 0.356835
878 2 0.849996 0.350031 0.356855
875 1 0.899969 0.300063 0.33641
881 1 7.4808e-05 0.400002 0.336359
889 1 0.199944 0.400065 0.336342
897 1 0.399935 0.399956 0.336337
905 1 0.600051 0.400075 0.336349
913 1 0.800065 0.399948 0.336373
888 2 0.150029 0.450073 0.356851
896 2 0.34996 0.449976 0.356861
904 2 0.549948 0.450056 0.356839
912 2 0.750064 0.449978 0.356864
920 2 0.949986 0.450069 0.356834
886 2 0.049981 0.550038 0.356811
883 1 0.0999644 0.499914 0.33641
894 2 0.250048 0.549986 0.356801
891 1 0.299952 0.500062 0.336404
902 2 0.450076 0.549956 0.356854
899 1 0.500071 0.499977 0.336411
907 1 0.700007 0.499964 0.336403
910 2 0.649998 0.550059 0.356798
918 2 0.850023 0.549986 0.356851
915 1 0.899929 0.499984 0.336347
921 1 4.06768e-05 0.600007 0.336419
929 1 0.20007 0.599988 0.336368
937 1 0.400005 0.599918 0.336386
945 1 0.599965 0.599968 0.336421
953 1 0.800048 0.599942 0.336359
923 1 0.0999215 0.700028 0.33634
928 2 0.149992 0.65004 0.356802
931 1 0.299994 0.700047 0.336411
936 2 0.349998 0.649924 0.356816
939 1 0.499952 0.700022 0.336348
944 2 0.550013 0.650049 0.356868
947 1 0.700028 0.699944 0.336417
952 2 0.749963 0.650017 0.356814
955 1 0.899959 0.699954 0.336396
960 2 0.949998 0.649936 0.356812
926 2 0.0500333 0.750033 0.356814
934 2 0.250056 0.750028 0.356843
942 2 0.450069 0.750067 0.356806
950 2 0.649938 0.750062 0.356822
958 2 0.849924 0.750032 0.356858
968 2 0.150033 0.850067 0.356822
969 1 0.199959 0.800077 0.336393
976 2 0.349994 0.85003 0.356875
977 1 0.399953 0.800003 0.33641
984 2 0.549959 0.850065 0.356848
985 1 0.600033 0.79996 0.336368
992 2 0.749986 0.850027 0.356849
993 1 0.799956 0.799949 0.33639
961 1 0.999999 0.799977 0.336395
1000 2 0.949974 0.850062 0.35685
963 1 0.0999293 0.899947 0.336415
971 1 0.30004 0.899971 0.336403
979 1 0.500059 0.899936 0.336376
987 1 0.699979 0.899947 0.336374
995 1 0.899971 0.899942 0.336342
966 2 0.0500462 0.950031 0.356839
809 1 0.199918 0.999929 0.336337
974 2 0.25003 0.950039 0.356844
982 2 0.450011 0.950057 0.356872
990 2 0.650048 0.950079 0.356801
998 2 0.850049 0.949978 0.356869
801 1 0.999918 0.999997 0.336343
802 1 0.100029 7.00413e-05 0.377328
810 1 0.30002 -7.55543e-05 0.377295
818 1 0.500016 4.59343e-05 0.377332
834 1 0.899943 3.40163e-05 0.37731
812 1 0.199931 0.100038 0.377295
820 1 0.40004 0.0999649 0.377319
828 1 0.600042 0.100001 0.37731
836 1 0.799913 0.100006 0.377255
804 1 1.00004 0.0999269 0.377309
842 1 0.10006 0.20004 0.377293
850 1 0.299934 0.199989 0.37727
858 1 0.500069 0.200078 0.377332
866 1 0.699937 0.200069 0.377277
874 1 0.900073 0.19993 0.377287
844 1 -4.7502e-05 0.299934 0.377296
852 1 0.200007 0.300002 0.377291
860 1 0.399948 0.299956 0.37732
868 1 0.599964 0.300038 0.377317
876 1 0.800073 0.299969 0.377282
882 1 0.0999958 0.400024 0.377338
890 1 0.300009 0.400006 0.377316
898 1 0.500015 0.399957 0.377324
906 1 0.699921 0.400017 0.377279
914 1 0.899928 0.399937 0.377309
892 1 0.200014 0.50006 0.377287
884 1 2.22169e-05 0.499917 0.377319
900 1 0.399926 0.500083 0.377336
908 1 0.600046 0.499928 0.37728
916 1 0.800073 0.499988 0.377298
922 1 0.0999463 0.600076 0.377303
930 1 0.300011 0.599926 0.377314
938 1 0.49993 0.599917 0.377315
946 1 0.700002 0.60002 0.377331
954 1 0.900065 0.599934 0.377289
932 1 0.200039 0.699971 0.377303
940 1 0.400013 0.700034 0.377327
948 1 0.600056 0.70008 0.377326
956 1 0.799972 0.700014 0.377269
924 1 0.999954 0.699972 0.377334
962 1 0.099924 0.799915 0.377293
970 1 0.300019 0.800059 0.377312
978 1 0.49997 0.799966 0.377334
986 1 0.699977 0.800013 0.377266
994 1 0.899931 0.800048 0.377296
964 1 7.00115e-06 0.9 0.377315
972 1 0.199978 0.900068 0.377268
980 1 0.399974 0.899957 0.377273
988 1 0.600016 0.900084 0.377278
996 1 0.80004 0.89997 0.377272
826 1 0.700021 1.00001 0.377285
807 2 0.0499951 0.0499219 0.397758
1001 1 -8.17235e-05 9.66496e-06 0.418203
1009 1 0.200063 6.60895e-05 0.41819
815 2 0.250022 0.049928 0.39777
1017 1 0.39992 4.43824e-05 0.418245
823 2 0.449941 0.0499863 0.397763
831 2 0.649958 0.0500594 0.39779
839 2 0.849992 0.0500225 0.397736
1033 1 0.799946 -5.32343e-05 0.418215
1003 1 0.099959 0.0999497 0.418228
1011 1 0.30006 0.100037 0.418227
1019 1 0.499972 0.100008 0.41826
1027 1 0.699974 0.100066 0.418231
1035 1 0.900048 0.0999907 0.418261