ITEM: TIMESTEP
500
ITEM: NUMBER OF ATOMS
1250
ITEM: BOX BOUNDS pp pp pp
0.0000000000000000e+00 4.0000000000000000e+01
0.0000000000000000e+00 4.0000000000000000e+01
-1.6000000000000000e+01 6.4000000000000000e+01
ITEM: ATOMS id type xs ys zs
1 1 0 0 0
8 2 0.15 0.05 0.025
9 1 0.2 0 0
16 2 0.35 0.05 0.025
17 1 0.4 0 0
24 2 0.55 0.05 0.025
25 1 0.6 0 0
32 2 0.75 0.05 0.025
33 1 0.8 0 0
40 2 0.95 0.05 0.025
3 1 0.1 0.1 0
11 1 0.3 0.1 0
19 1 0.5 0.1 0
27 1 0.7 0.1 0
35 1 0.9 0.1 0
6 2 0.05 0.15 0.025
14 2 0.25 0.15 0.025
22 2 0.45 0.15 0.025
30 2 0.65 0.15 0.025
38 2 0.85 0.15 0.025
41 1 0 0.2 0
48 2 0.15 0.25 0.025
49 1 0.2 0.2 0
56 2 0.35 0.25 0.025
57 1 0.4 0.2 0
64 2 0.55 0.25 0.025
65 1 0.6 0.2 0
72 2 0.75 0.25 0.025
73 1 0.8 0.2 0
80 2 0.95 0.25 0.025
43 1 0.1 0.3 0
51 1 0.3 0.3 0
59 1 0.5 0.3 0
67 1 0.7 0.3 0
75 1 0.9 0.3 0
46 2 0.05 0.35 0.025
54 2 0.25 0.35 0.025
62 2 0.45 0.35 0.025
70 2 0.65 0.35 0.025
78 2 0.85 0.35 0.025
81 1 0 0.4 0
88 2 0.15 0.45 0.025
89 1 0.2 0.4 0
96 2 0.35 0.45 0.025
97 1 0.4 0.4 0
104 2 0.55 0.45 0.025
105 1 0.6 0.4 0
112 2 0.75 0.45 0.025
113 1 0.8 0.4 0
120 2 0.95 0.45 0.025
83 1 0.1 0.5 0
91 1 0.3 0.5 0
99 1 0.5 0.5 0
107 1 0.7 0.5 0
115 1 0.9 0.5 0
86 2 0.05 0.55 0.025
94 2 0.25 0.55 0.025
102 2 0.45 0.55 0.025
110 2 0.65 0.55 0.025
118 2 0.85 0.55 0.025
121 1 0 0.6 0
128 2 0.15 0.65 0.025
129 1 0.2 0.6 0
136 2 0.35 0.65 0.025
137 1 0.4 0.6 0
144 2 0.55 0.65 0.025
145 1 0.6 0.6 0
152 2 0.75 0.65 0.025
153 1 0.8 0.6 0
160 2 0.95 0.65 0.025
123 1 0.1 0.7 0
131 1 0.3 0.7 0
139 1 0.5 0.7 0
147 1 0.7 0.7 0
155 1 0.9 0.7 0
126 2 0.05 0.75 0.025
134 2 0.25 0.75 0.025
142 2 0.45 0.75 0.025
150 2 0.65 0.75 0.025
158 2 0.85 0.75 0.025
161 1 0 0.8 0
168 2 0.15 0.85 0.025
169 1 0.2 0.8 0
176 2 0.35 0.85 0.025
177 1 0.4 0.8 0
184 2 0.55 0.85 0.025
185 1 0.6 0.8 0
192 2 0.75 0.85 0.025
193 1 0.8 0.8 0
200 2 0.95 0.85 0.025
163 1 0.1 0.9 0
171 1 0.3 0.9 0
179 1 0.5 0.9 0
187 1 0.7 0.9 0
195 1 0.9 0.9 0
166 2 0.05 0.95 0.025
174 2 0.25 0.95 0.025
182 2 0.45 0.95 0.025
190 2 0.65 0.95 0.025
198 2 0.85 0.95 0.025
7 2 0.0500037 0.0500321 0.0658648
2 1 0.1 0 0.05
15 2 0.249978 0.0500014 0.0658771
10 1 0.3 0 0.05
23 2 0.45002 0.0500103 0.0658799
18 1 0.5 0 0.05
31 2 0.650016 0.0500021 0.065864
26 1 0.7 0 0.05
39 2 0.850024 0.0500069 0.0658689
34 1 0.9 0 0.05
4 1 0 0.1 0.05
12 1 0.2 0.1 0.05
20 1 0.4 0.1 0.05
28 1 0.6 0.1 0.05
36 1 0.8 0.1 0.05
5 2 0.149973 0.150007 0.0658517
13 2 0.349984 0.150014 0.0658805
21 2 0.550008 0.150017 0.0658515
29 2 0.750032 0.149977 0.0658554
37 2 0.950012 0.149964 0.065881
47 2 0.0499708 0.250026 0.0658443
42 1 0.1 0.2 0.05
55 2 0.249991 0.25003 0.0658827
50 1 0.3 0.2 0.05
63 2 0.449993 0.249983 0.0658701
58 1 0.5 0.2 0.05
71 2 0.650033 0.249962 0.0658603
66 1 0.7 0.2 0.05
79 2 0.849973 0.250028 0.0658567
74 1 0.9 0.2 0.05
44 1 0 0.3 0.05
52 1 0.2 0.3 0.05
60 1 0.4 0.3 0.05
68 1 0.6 0.3 0.05
76 1 0.8 0.3 0.05
45 2 0.149962 0.350033 0.0658511
53 2 0.349984 0.349999 0.0658523
61 2 0.550036 0.349998 0.0658629
69 2 0.750008 0.349961 0.0658602
77 2 0.949999 0.350023 0.0658765
87 2 0.0499715 0.449973 0.0658594
82 1 0.1 0.4 0.05
95 2 0.250028 0.450017 0.065873
90 1 0.3 0.4 0.05
103 2 0.449979 0.449995 0.0658469
98 1 0.5 0.4 0.05
111 2 0.650014 0.449961 0.065863
106 1 0.7 0.4 0.05
119 2 0.85001 0.449958 0.0658522
114 1 0.9 0.4 0.05
84 1 0 0.5 0.05
92 1 0.2 0.5 0.05
100 1 0.4 0.5 0.05
108 1 0.6 0.5 0.05
116 1 0.8 0.5 0.05
85 2 0.149962 0.549988 0.0658638
93 2 0.349989 0.550025 0.0658681
101 2 0.550012 0.550039 0.0658804
109 2 0.750032 0.549969 0.0658794
117 2 0.950005 0.550037 0.0658538
127 2 0.0500396 0.650029 0.0658484
122 1 0.1 0.6 0.05
135 2 0.249981 0.649991 0.0658716
130 1 0.3 0.6 0.05
143 2 0.450005 0.65003 0.0658514
138 1 0.5 0.6 0.05
151 2 0.649969 0.650005 0.0658473
146 1 0.7 0.6 0.05
159 2 0.850009 0.650022 0.0658753
154 1 0.9 0.6 0.05
124 1 0 0.7 0.05
132 1 0.2 0.7 0.05
140 1 0.4 0.7 0.05
148 1 0.6 0.7 0.05
156 1 0.8 0.7 0.05
125 2 0.150041 0.750003 0.0658801
133 2 0.350004 0.749975 0.0658558
141 2 0.549975 0.750023 0.0658775
149 2 0.749991 0.750008 0.0658602
157 2 0.950003 0.750027 0.065862
167 2 0.0499993 0.85004 0.0658506
162 1 0.1 0.8 0.05
175 2 0.250024 0.849994 0.065876
170 1 0.3 0.8 0.05
183 2 0.450027 0.850036 0.065858
178 1 0.5 0.8 0.05
191 2 0.650023 0.849961 0.0658782
186 1 0.7 0.8 0.05
199 2 0.850037 0.849999 0.0658759
194 1 0.9 0.8 0.05
164 1 0 0.9 0.05
172 1 0.2 0.9 0.05
180 1 0.4 0.9 0.05
188 1 0.6 0.9 0.05
196 1 0.8 0.9 0.05
165 2 0.149961 0.949985 0.0658806
173 2 0.349998 0.949992 0.0658745
181 2 0.549967 0.949989 0.0658599
189 2 0.750028 0.950007 0.0658522
197 2 0.94997 0.949983 0.0658536
201 1 1.27335e-05 2.09126e-05 0.0816782
208 2 0.149964 0.0500252 0.0974338
216 2 0.350005 0.0500334 0.0974398
224 2 0.549966 0.0500262 0.0974713
225 1 0.599964 -3.27121e-05 0.0816626
232 2 0.750011 0.0500244 0.0974538
233 1 0.800032 -1.598e-05 0.0816461
240 2 0.950004 0.050027 0.0974391
203 1 0.100034 0.100006 0.0816508
211 1 0.300008 0.100014 0.0816683
219 1 0.500023 0.100039 0.0816467
227 1 0.70001 0.100027 0.08165
235 1 0.900025 0.100001 0.0816491
206 2 0.0500253 0.150011 0.0974417
214 2 0.25 0.150025 0.0974499
222 2 0.449984 0.149982 0.0974335
230 2 0.650015 0.149991 0.0974376
238 2 0.849966 0.149983 0.0974713
241 1 1 0.200024 0.0816677
248 2 0.149974 0.250027 0.0974388
249 1 0.200039 0.199963 0.0816626
256 2 0.350011 0.249995 0.0974492
257 1 0.400016 0.200005 0.0816818
264 2 0.549999 0.250001 0.0974501
265 1 0.599985 0.200031 0.081672
272 2 0.750011 0.249963 0.0974487
273 1 0.799974 0.20003 0.0816514
280 2 0.950001 0.249968 0.0974373
243 1 0.0999808 0.299961 0.08168
251 1 0.299975 0.299985 0.0816456
259 1 0.500003 0.299964 0.0816572
267 1 0.700034 0.29999 0.0816686
275 1 0.90002 0.300022 0.081675
246 2 0.0500355 0.349972 0.0974397
281 1 6.3426e-07 0.399961 0.0816539
254 2 0.249977 0.350016 0.097438
289 1 0.200005 0.399992 0.0816738
262 2 0.449978 0.350006 0.0974672
297 1 0.400022 0.400006 0.0816474
270 2 0.650022 0.350033 0.0974551
278 2 0.849988 0.350036 0.0974384
313 1 0.800015 0.399995 0.0816846
288 2 0.150029 0.449977 0.097465
296 2 0.349996 0.45 0.0974711
304 2 0.55 0.449996 0.0974454
305 1 0.600013 0.399957 0.0816886
312 2 0.750025 0.450002 0.0974433
320 2 0.949983 0.450025 0.0974615
283 1 0.100003 0.500035 0.0816477
291 1 0.299957 0.499998 0.0816715
299 1 0.500037 0.500031 0.0816834
307 1 0.700021 0.500027 0.0816614
315 1 0.89998 0.49996 0.0816737
286 2 0.0499972 0.549977 0.097434
321 1 -1.79277e-05 0.600039 0.0816726
294 2 0.249966 0.549993 0.0974317
329 1 0.199975 0.599979 0.0816728
302 2 0.450022 0.55003 0.0974633
310 2 0.649983 0.550007 0.097439
353 1 0.799962 0.599988 0.0816593
318 2 0.849986 0.550018 0.0974307
328 2 0.150008 0.650025 0.0974459
336 2 0.349988 0.65002 0.0974716
337 1 0.400028 0.60002 0.0816866
344 2 0.549989 0.649967 0.097444
345 1 0.600042 0.599959 0.0816673
352 2 0.749973 0.649986 0.0974453
360 2 0.949963 0.650018 0.0974427
323 1 0.100002 0.699999 0.0816514
331 1 0.300019 0.69999 0.0816458
339 1 0.499967 0.700043 0.0816836
347 1 0.700035 0.699982 0.0816861
355 1 0.899987 0.700001 0.0816748
326 2 0.0499638 0.749983 0.0974347
334 2 0.250023 0.750026 0.0974587
369 1 0.200043 0.80004 0.0816628
342 2 0.450026 0.750013 0.0974714
350 2 0.650037 0.749998 0.0974673
358 2 0.850036 0.750011 0.0974356
361 1 1.00002 0.800007 0.0816687
368 2 0.150008 0.849989 0.0974372
376 2 0.349971 0.850018 0.0974627
377 1 0.399971 0.800024 0.0816679
384 2 0.550041 0.85004 0.0974401
385 1 0.599984 0.800021 0.0816833
392 2 0.75001 0.850031 0.0974694
393 1 0.799972 0.799994 0.0816758
400 2 0.950028 0.849977 0.0974676
363 1 0.0999842 0.89996 0.0816541
371 1 0.300005 0.899998 0.0816886
379 1 0.499997 0.89996 0.0816759
387 1 0.700029 0.900003 0.0816572
395 1 0.89997 0.899973 0.0816652
366 2 0.0500015 0.950033 0.0974441
209 1 0.200003 0.999971 0.0816631
374 2 0.249966 0.949968 0.0974468
217 1 0.399968 1.00004 0.0816747
382 2 0.450007 0.950037 0.097433
390 2 0.649961 0.949992 0.0974437
398 2 0.850027 0.950021 0.0974463
207 2 0.0500131 0.0499953 0.129006
215 2 0.250016 0.0499738 0.129007
210 1 0.299966 3.05569e-05 0.113242
223 2 0.450037 0.0499637 0.12901
218 1 0.499978 5.25846e-06 0.113231
231 2 0.649989 0.0500141 0.129026
226 1 0.699993 -3.03237e-05 0.113222
239 2 0.850002 0.0499713 0.129
234 1 0.900037 -4.06597e-05 0.113223
204 1 -3.15285e-05 0.1 0.113234
212 1 0.199988 0.100024 0.113255
220 1 0.399988 0.0999597 0.113217
228 1 0.599979 0.100012 0.113237
236 1 0.799984 0.0999877 0.113226
205 2 0.150027 0.150009 0.129022
213 2 0.350019 0.149989 0.129033
221 2 0.549959 0.150014 0.129031
229 2 0.750001 0.149977 0.129009
237 2 0.949974 0.149966 0.129027
247 2 0.050033 0.250011 0.129027
242 1 0.10004 0.199987 0.113238
255 2 0.249993 0.249974 0.12903
250 1 0.300015 0.19999 0.113256
263 2 0.449978 0.249996 0.12901
258 1 0.499971 0.200001 0.113238
271 2 0.650037 0.24997 0.129024
266 1 0.700009 0.200008 0.113215
279 2 0.849968 0.250006 0.129005
274 1 0.899957 0.199983 0.113243
252 1 0.200003 0.300038 0.113227
260 1 0.400041 0.299961 0.113255
268 1 0.599992 0.300032 0.11324
276 1 0.800007 0.300023 0.113245
244 1 0.999997 0.299981 0.11322
245 2 0.149979 0.350032 0.129005
290 1 0.299978 0.399957 0.113244
253 2 0.350033 0.349974 0.129035
298 1 0.500008 0.39998 0.113251
261 2 0.550003 0.349982 0.129012
306 1 0.700006 0.39996 0.11323
269 2 0.750014 0.350008 0.129001
277 2 0.950008 0.35 0.129015
287 2 0.0500026 0.449999 0.129022
282 1 0.100022 0.399966 0.113251
295 2 0.249964 0.45004 0.129037
303 2 0.45002 0.450005 0.129016
311 2 0.649974 0.449998 0.129009
319 2 0.849985 0.450003 0.12903
314 1 0.899978 0.399987 0.113237
284 1 -6.20487e-06 0.499984 0.113231
292 1 0.200033 0.499957 0.113226
300 1 0.400018 0.50004 0.113232
308 1 0.600013 0.499983 0.113231
316 1 0.799991 0.500022 0.113223
322 1 0.100027 0.600012 0.113255
285 2 0.149965 0.549994 0.129039
330 1 0.300016 0.60004 0.113234
293 2 0.350041 0.550036 0.129012
338 1 0.500025 0.59998 0.113217
301 2 0.549995 0.55 0.129031
309 2 0.749992 0.549974 0.12904
317 2 0.95004 0.54997 0.129029
327 2 0.0499933 0.65 0.129001
335 2 0.250023 0.649966 0.129038
343 2 0.45002 0.649977 0.129
351 2 0.649963 0.650021 0.129029
346 1 0.700015 0.600037 0.113223
359 2 0.850018 0.649973 0.129019
354 1 0.899961 0.599956 0.113255
324 1 4.34653e-05 0.699975 0.113233
332 1 0.200022 0.700009 0.113241
340 1 0.39997 0.699963 0.113242
348 1 0.600001 0.699968 0.11324
356 1 0.80003 0.700017 0.113256
362 1 0.100015 0.800023 0.11324
325 2 0.150013 0.750019 0.129007
370 1 0.299987 0.799989 0.113243
333 2 0.350015 0.74996 0.129017
378 1 0.500013 0.800009 0.113255
341 2 0.549998 0.74997 0.129028
349 2 0.75002 0.750016 0.129038
357 2 0.95002 0.74997 0.129002
367 2 0.050025 0.849964 0.12901
375 2 0.249972 0.849974 0.129005
383 2 0.449981 0.849998 0.129018
391 2 0.650039 0.85001 0.129033
386 1 0.700042 0.799992 0.113252
399 2 0.850036 0.849966 0.129041
394 1 0.899975 0.799964 0.11324
372 1 0.199963 0.9 0.113254
380 1 0.400043 0.899994 0.11324
388 1 0.600043 0.900003 0.113234
396 1 0.800014 0.899968 0.113254
364 1 1.00002 0.899996 0.113228
202 1 0.100008 1.00001 0.113249
365 2 0.150009 0.949991 0.129011
373 2 0.349973 0.950017 0.12902
381 2 0.549989 0.949978 0.129008
389 2 0.749965 0.950023 0.129034
397 2 0.949964 0.949963 0.129026
408 2 0.150003 0.0500226 0.160605
416 2 0.349968 0.0500084 0.1606
424 2 0.550031 0.0499644 0.160589
425 1 0.599973 2.05524e-05 0.144792
432 2 0.750015 0.0500309 0.160585
440 2 0.949971 0.0499625 0.160607
403 1 0.100002 0.100015 0.144825
411 1 0.299958 0.0999811 0.144823
419 1 0.500016 0.0999967 0.144811
427 1 0.699959 0.100029 0.144794
435 1 0.899976 0.0999765 0.144805
406 2 0.0499972 0.149976 0.160588
414 2 0.249984 0.150035 0.160595
422 2 0.449968 0.149981 0.160583
430 2 0.649975 0.150039 0.160579
438 2 0.850036 0.150005 0.160606
441 1 0.999968 0.19996 0.144798
448 2 0.150011 0.249985 0.160569
449 1 0.199996 0.199995 0.144822
456 2 0.349994 0.249991 0.160608
457 1 0.399993 0.200041 0.144827
464 2 0.550001 0.249998 0.160595
465 1 0.599958 0.200035 0.144824
472 2 0.750022 0.250003 0.160577
473 1 0.799994 0.200022 0.144791
480 2 0.950038 0.250037 0.160582
443 1 0.0999765 0.300017 0.144812
451 1 0.300004 0.29996 0.144809
459 1 0.499997 0.300002 0.144788
467 1 0.699993 0.299962 0.144815
475 1 0.899994 0.299966 0.144813
446 2 0.0500236 0.349964 0.160577
481 1 3.55916e-05 0.399995 0.144794
454 2 0.249976 0.349991 0.160575
489 1 0.199959 0.399973 0.144822
497 1 0.399989 0.400034 0.144825
462 2 0.449991 0.350028 0.160596
505 1 0.600003 0.400006 0.14481
470 2 0.650027 0.349965 0.160594
513 1 0.800006 0.399989 0.14479
478 2 0.849993 0.350029 0.160575
488 2 0.14999 0.450023 0.160603
496 2 0.34998 0.449991 0.160592
504 2 0.549966 0.449959 0.160605
512 2 0.75 0.449989 0.160602
520 2 0.950017 0.450009 0.160572
483 1 0.0999719 0.500035 0.144821
491 1 0.300006 0.499997 0.144803
499 1 0.500043 0.499974 0.144814
507 1 0.699968 0.500023 0.144786
515 1 0.899972 0.499969 0.144813
486 2 0.0500082 0.550004 0.160587
494 2 0.249964 0.550032 0.16059
529 1 0.200004 0.599986 0.144826
502 2 0.449975 0.550032 0.160594
537 1 0.399968 0.599993 0.144794
510 2 0.649968 0.549968 0.160607
518 2 0.849979 0.550011 0.160608
521 1 3.61361e-05 0.599966 0.1448
528 2 0.149998 0.649977 0.160586
536 2 0.350018 0.649993 0.160574
544 2 0.550038 0.650035 0.160582
545 1 0.600011 0.599978 0.144783
552 2 0.75003 0.650019 0.160573
553 1 0.799987 0.600016 0.144805
560 2 0.95003 0.64996 0.160593
523 1 0.100042 0.700033 0.144798
531 1 0.299968 0.699957 0.144819
539 1 0.500037 0.700039 0.144817
547 1 0.69999 0.700035 0.144797
555 1 0.900025 0.700027 0.144792
526 2 0.0499841 0.750006 0.16059
569 1 0.199987 0.799978 0.14482
534 2 0.24997 0.749985 0.160603
542 2 0.449966 0.75003 0.160609
577 1 0.400027 0.800006 0.144804
550 2 0.650037 0.749961 0.160586
558 2 0.850013 0.749981 0.160575
561 1 1.00004 0.800006 0.144787
568 2 0.150008 0.850035 0.160594
576 2 0.349994 0.850002 0.160603
584 2 0.550025 0.849982 0.160584
585 1 0.60001 0.800039 0.144822
592 2 0.75002 0.849994 0.160574
593 1 0.800043 0.800031 0.144819
600 2 0.949996 0.850027 0.160575
563 1 0.100042 0.899966 0.144807
571 1 0.299961 0.899986 0.144799
579 1 0.500006 0.899979 0.14479
587 1 0.700005 0.900006 0.144825
595 1 0.900036 0.90004 0.144824
566 2 0.0499966 0.949982 0.160597
409 1 0.199979 1 0.14482
574 2 0.25004 0.949975 0.160578
417 1 0.399978 0.999974 0.144821
582 2 0.450007 0.949964 0.160575
590 2 0.65 0.94996 0.160589
433 1 0.799963 1.00002 0.144793
598 2 0.84999 0.950016 0.16058
401 1 0.999976 0.999992 0.144816
407 2 0.0499888 0.0500227 0.192166
415 2 0.249965 0.0499894 0.19217
423 2 0.450014 0.0500255 0.192176
431 2 0.649989 0.0499923 0.192178
439 2 0.850023 0.049986 0.192165
412 1 0.200023 0.100017 0.176391
420 1 0.400029 0.100035 0.176375
428 1 0.600011 0.100042 0.17636
436 1 0.799984 0.100001 0.176383
404 1 0.999963 0.100018 0.176359
405 2 0.149998 0.149988 0.192151
450 1 0.300016 0.200021 0.176375
413 2 0.350017 0.150011 0.192154
458 1 0.499978 0.200013 0.176379
421 2 0.54997 0.150008 0.192148
429 2 0.750036 0.14998 0.192161
474 1 0.899997 0.199978 0.176395
437 2 0.950002 0.150002 0.192179
447 2 0.0500074 0.249978 0.192163
442 1 0.0999669 0.200037 0.176392
455 2 0.250037 0.249986 0.192147
463 2 0.449983 0.249961 0.192169
471 2 0.649963 0.249968 0.19215
466 1 0.699997 0.199958 0.176372
479 2 0.850006 0.250021 0.192147
452 1 0.200013 0.300029 0.176394
460 1 0.400044 0.299984 0.17636
468 1 0.599963 0.300009 0.176384
476 1 0.800002 0.299965 0.176382
444 1 0.999987 0.300021 0.176365
445 2 0.149994 0.350028 0.192146
490 1 0.30001 0.400026 0.176367
453 2 0.349996 0.350022 0.192167
461 2 0.549992 0.350021 0.192143
469 2 0.75 0.350034 0.192152
477 2 0.949992 0.349966 0.192163
487 2 0.0499819 0.449986 0.192179
482 1 0.100024 0.399984 0.176357
495 2 0.24996 0.44998 0.192139
503 2 0.450026 0.450016 0.192139
498 1 0.499986 0.400034 0.176392
511 2 0.650028 0.45004 0.192169
506 1 0.699962 0.399971 0.176372
519 2 0.850029 0.449995 0.192175
514 1 0.89998 0.400019 0.176374
484 1 5.04758e-06 0.499977 0.176384
492 1 0.199987 0.499966 0.176356
500 1 0.399986 0.499994 0.176373
508 1 0.599998 0.499957 0.176354
516 1 0.800044 0.499965 0.176361
485 2 0.14998 0.550022 0.192173
530 1 0.29999 0.599991 0.176374
493 2 0.350014 0.550016 0.192166
538 1 0.499977 0.599968 0.176384
501 2 0.550009 0.549969 0.192172
509 2 0.75002 0.549982 0.19215
517 2 0.949984 0.550028 0.192174
527 2 0.0500243 0.649969 0.192175
522 1 0.100018 0.600007 0.176392
535 2 0.249965 0.650016 0.192175
543 2 0.450041 0.650012 0.192161
551 2 0.650037 0.649986 0.192162
546 1 0.700026 0.600003 0.176366
559 2 0.849988 0.649998 0.192143
554 1 0.900022 0.600034 0.176378
532 1 0.199964 0.699962 0.176371
540 1 0.399995 0.7 0.176377
548 1 0.599987 0.699976 0.17638
556 1 0.799957 0.700038 0.176381
524 1 1.00001 0.700006 0.176379
525 2 0.149974 0.749995 0.192179
570 1 0.299981 0.799967 0.176376
533 2 0.350011 0.750041 0.19214
541 2 0.549981 0.750005 0.192172
549 2 0.749986 0.749985 0.192161
594 1 0.900021 0.79997 0.176367
557 2 0.949961 0.750038 0.192161
567 2 0.0500098 0.850029 0.192166
562 1 0.100008 0.799979 0.176385
575 2 0.249992 0.849983 0.192148
583 2 0.450041 0.849975 0.192139
578 1 0.500015 0.799983 0.176356
591 2 0.649994 0.849989 0.192159
586 1 0.700016 0.800001 0.17637
599 2 0.849979 0.850026 0.192152
564 1 1.84121e-05 0.899993 0.176372
572 1 0.199987 0.899962 0.176375
580 1 0.400044 0.900017 0.176361
588 1 0.600012 0.900015 0.176376
596 1 0.800042 0.899985 0.176355
402 1 0.0999728 0.999966 0.176361
565 2 0.150032 0.950002 0.192172
410 1 0.300021 1.00003 0.17638
573 2 0.350017 0.950009 0.192168
418 1 0.500035 0.999965 0.176377
581 2 0.549999 0.949982 0.192177
426 1 0.699965 1 0.176358
589 2 0.749978 0.949971 0.19215
434 1 0.899962 0.999966 0.176362
597 2 0.950033 0.95004 0.192164
608 2 0.149973 0.0500387 0.223744
616 2 0.350003 0.0500025 0.223708
624 2 0.549974 0.0499688 0.223742
625 1 0.599999 2.61974e-05 0.207934
632 2 0.750005 0.0499877 0.223724
633 1 0.799977 -3.37541e-05 0.207953
601 1 0.999985 3.09293e-05 0.207953
640 2 0.950027 0.0499777 0.223745
603 1 0.100036 0.100031 0.207945
611 1 0.299959 0.100003 0.207962
619 1 0.499957 0.0999578 0.207924
627 1 0.699961 0.0999589 0.207955
635 1 0.900036 0.100025 0.207954
606 2 0.0499806 0.149972 0.22374
649 1 0.200009 0.200018 0.207931
614 2 0.250036 0.150026 0.223715
657 1 0.400043 0.200031 0.207928
622 2 0.450025 0.150018 0.223746
630 2 0.64996 0.149987 0.223708
665 1 0.59999 0.200038 0.207927
638 2 0.849993 0.149979 0.223735
641 1 0.999984 0.200003 0.20796
648 2 0.149966 0.249979 0.223749
656 2 0.350014 0.249976 0.223735
664 2 0.549966 0.250007 0.223748
672 2 0.749994 0.24997 0.223738
673 1 0.800041 0.200027 0.207958
680 2 0.950027 0.250022 0.223731
643 1 0.100044 0.299999 0.207932
651 1 0.299981 0.299996 0.207942
659 1 0.499996 0.299982 0.207928
667 1 0.700017 0.299998 0.20795
675 1 0.900005 0.299959 0.207954
646 2 0.0499942 0.349995 0.223743
654 2 0.249969 0.349975 0.223708
662 2 0.449974 0.349984 0.223746
670 2 0.650011 0.349966 0.223721
678 2 0.850008 0.349998 0.223717
688 2 0.149967 0.450005 0.223741
689 1 0.200005 0.399961 0.207922
696 2 0.350034 0.449997 0.223714
697 1 0.400001 0.400007 0.207931
704 2 0.550018 0.449964 0.223724
705 1 0.60003 0.399987 0.207961
712 2 0.749968 0.449981 0.223719
713 1 0.800016 0.400042 0.207937
681 1 1.00002 0.400015 0.207963
720 2 0.949994 0.449987 0.223713
683 1 0.100005 0.499964 0.207954
691 1 0.29998 0.499993 0.20794
699 1 0.499983 0.499989 0.207955
707 1 0.700017 0.499995 0.207943
715 1 0.900026 0.500001 0.207939
686 2 0.0499645 0.549977 0.223744
694 2 0.250029 0.549997 0.223724
729 1 0.199974 0.600025 0.207934
702 2 0.450026 0.550023 0.223713
710 2 0.650005 0.549996 0.223726
718 2 0.850005 0.549987 0.223719
721 1 3.64544e-05 0.599999 0.20793
728 2 0.149986 0.649992 0.223736
736 2 0.350019 0.650024 0.223713
737 1 0.4 0.599991 0.207923
744 2 0.549972 0.650009 0.223719
745 1 0.600002 0.600037 0.20795
752 2 0.749994 0.650022 0.223728
753 1 0.800028 0.60002 0.207947
760 2 0.950008 0.650024 0.223719
723 1 0.0999895 0.699999 0.207952
731 1 0.300041 0.699989 0.207933
739 1 0.500006 0.700042 0.20795
747 1 0.699971 0.700017 0.207922
755 1 0.900003 0.699957 0.20795
726 2 0.0499867 0.750027 0.223719
761 1 3.1206e-05 0.800036 0.207964
734 2 0.249968 0.749982 0.223746
769 1 0.199989 0.799972 0.207941
777 1 0.400027 0.800031 0.20794
742 2 0.44998 0.749969 0.223736
750 2 0.649964 0.74998 0.223735
785 1 0.599995 0.800012 0.207944
758 2 0.849991 0.749995 0.223724
768 2 0.15001 0.850024 0.223715
776 2 0.350015 0.850015 0.223738
784 2 0.550028 0.850019 0.223748
792 2 0.750006 0.849983 0.223733
793 1 0.800009 0.799999 0.207935
800 2 0.949968 0.850026 0.223729
763 1 0.100025 0.90003 0.207959
771 1 0.300018 0.900037 0.207931
779 1 0.500041 0.899994 0.207933
787 1 0.700001 0.899963 0.207953
795 1 0.899961 0.89996 0.20793
766 2 0.0500304 0.950002 0.223746
609 1 0.199969 0.999996 0.207959
774 2 0.249982 0.949992 0.223748
617 1 0.399996 0.999956 0.207925
782 2 0.450039 0.950003 0.223729
790 2 0.649959 0.949971 0.223735
798 2 0.850006 0.949976 0.223734
607 2 0.0500248 0.0499806 0.255294
615 2 0.249998 0.0499929 0.255306
623 2 0.449978 0.0499847 0.255294
631 2 0.650016 0.0500402 0.255309
626 1 0.700004 -1.19351e-05 0.239513
639 2 0.849985 0.0500408 0.255315
634 1 0.899972 3.58291e-05 0.23953
612 1 0.200001 0.0999668 0.239525
620 1 0.399983 0.100012 0.239511
628 1 0.600019 0.09996 0.239528
636 1 0.800025 0.099986 0.239504
604 1 0.999989 0.0999976 0.239491
642 1 0.099979 0.19999 0.239517
605 2 0.149961 0.149973 0.255282
650 1 0.299962 0.199999 0.239526
613 2 0.349979 0.150002 0.255297
658 1 0.49999 0.200019 0.239498
621 2 0.549963 0.150008 0.255292
629 2 0.749988 0.149974 0.255308
637 2 0.949965 0.15003 0.255299
647 2 0.0499919 0.249982 0.255283
655 2 0.249999 0.250003 0.255296
663 2 0.450024 0.249962 0.25528
671 2 0.650005 0.250006 0.255314
666 1 0.700017 0.200023 0.239518
679 2 0.850004 0.249985 0.255283
674 1 0.90004 0.200002 0.239496
652 1 0.200029 0.300013 0.239493
660 1 0.399975 0.300016 0.239504
668 1 0.599958 0.30003 0.239503
676 1 0.79996 0.300031 0.239506
644 1 1.00003 0.299998 0.239502
682 1 0.100006 0.400024 0.239534
645 2 0.15001 0.349984 0.25529
690 1 0.300015 0.400031 0.239519
653 2 0.349977 0.350023 0.255301
661 2 0.550023 0.35004 0.25528
669 2 0.749986 0.349967 0.255312
677 2 0.950004 0.350021 0.25529
687 2 0.0499857 0.450031 0.255284
695 2 0.250036 0.449988 0.2553
703 2 0.450024 0.450015 0.255316
698 1 0.499991 0.399984 0.239526
711 2 0.649978 0.450035 0.255301
706 1 0.699985 0.4 0.239512
719 2 0.850022 0.450024 0.255318
714 1 0.89999 0.399989 0.239506
684 1 -3.68679e-05 0.500003 0.239517
692 1 0.200012 0.500011 0.239527
700 1 0.400012 0.500034 0.239503
708 1 0.60003 0.500015 0.239532
716 1 0.800026 0.499978 0.23952
722 1 0.0999603 0.600003 0.239522
685 2 0.150035 0.549978 0.25528
693 2 0.350017 0.549969 0.255283
701 2 0.549989 0.550004 0.255315
709 2 0.749983 0.549983 0.2553
717 2 0.950004 0.550008 0.255306
727 2 0.049974 0.65004 0.25529
735 2 0.249996 0.650004 0.255283
730 1 0.299988 0.599967 0.239513
743 2 0.45003 0.650032 0.255299
738 1 0.49997 0.600025 0.239493
751 2 0.649969 0.649999 0.255318
746 1 0.700022 0.600038 0.239523
759 2 0.849992 0.649998 0.255285
754 1 0.899999 0.599961 0.239525
724 1 -3.23938e-05 0.700004 0.239507
732 1 0.200014 0.700005 0.239521
740 1 0.400027 0.70001 0.239508
748 1 0.600023 0.700013 0.239523
756 1 0.799975 0.700017 0.239501
762 1 0.100027 0.799977 0.239533
725 2 0.150004 0.749994 0.255303
770 1 0.300007 0.800002 0.239499
733 2 0.350021 0.74998 0.255315
778 1 0.500031 0.799958 0.239496
741 2 0.550009 0.750013 0.255316
749 2 0.749966 0.749991 0.255307
757 2 0.949969 0.750005 0.255302
767 2 0.0499899 0.849964 0.255286
775 2 0.249978 0.850039 0.255288
783 2 0.450023 0.84997 0.255292
791 2 0.650016 0.850023 0.255305
786 1 0.699977 0.799975 0.239503
799 2 0.849968 0.850029 0.255291
794 1 0.899958 0.799999 0.239513
772 1 0.199957 0.900021 0.239519
780 1 0.399984 0.899971 0.239532
788 1 0.599967 0.900043 0.239531
796 1 0.800016 0.900038 0.239493
764 1 0.999989 0.899993 0.239524
602 1 0.0999709 0.999985 0.239494
765 2 0.150025 0.949971 0.255295
610 1 0.300003 1.00001 0.239501
773 2 0.349962 0.94997 0.255288
618 1 0.50004 1.00003 0.239498
781 2 0.550034 0.95001 0.255288
789 2 0.749988 0.949973 0.255287
797 2 0.950028 0.950029 0.255312
808 2 0.149993 0.0499869 0.286871
816 2 0.349982 0.0500056 0.286852
824 2 0.54999 0.0499728 0.286856
825 1 0.599996 -1.99356e-05 0.271093
832 2 0.749964 0.0499728 0.286862
833 1 0.800021 2.97145e-05 0.27107
801 1 0.999958 -1.69887e-06 0.271065
840 2 0.950007 0.0500014 0.286851
803 1 0.100013 0.100025 0.271079
811 1 0.300037 0.0999609 0.271061
819 1 0.49997 0.0999846 0.271078
827 1 0.700025 0.100019 0.27107
835 1 0.899993 0.0999942 0.271074
806 2 0.0499895 0.15 0.286872
849 1 0.199963 0.199971 0.271103
814 2 0.24997 0.149966 0.28685
857 1 0.399997 0.200019 0.271071
822 2 0.449968 0.149961 0.286878
830 2 0.649969 0.149987 0.286858
838 2 0.849961 0.150006 0.286849
848 2 0.150004 0.250034 0.286876
856 2 0.349971 0.250015 0.28687
864 2 0.549981 0.249976 0.286849
865 1 0.599995 0.200015 0.271076
872 2 0.749997 0.249978 0.286849
873 1 0.800017 0.199991 0.271067
841 1 0.999999 0.199998 0.271096
880 2 0.95004 0.250005 0.286868
843 1 0.0999805 0.30004 0.271075
851 1 0.300018 0.29998 0.271103
859 1 0.500037 0.299957 0.271097
867 1 0.699961 0.299979 0.271083
875 1 0.899984 0.300032 0.271099
846 2 0.0500341 0.35004 0.286847
889 1 0.199972 0.400032 0.271065
854 2 0.250003 0.350027 0.286864
897 1 0.399967 0.399978 0.271062
862 2 0.449966 0.349964 0.286883
870 2 0.649999 0.349961 0.286865
878 2 0.849998 0.350015 0.286875
881 1 1.00004 0.4 0.271073
888 2 0.150015 0.450037 0.286873
896 2 0.34998 0.449988 0.286879
904 2 0.549974 0.450029 0.286868
905 1 0.600026 0.400037 0.271068
912 2 0.750032 0.44999 0.28688
913 1 0.800033 0.399974 0.27108
920 2 0.949993 0.450035 0.286865
883 1 0.0999818 0.499956 0.271099
891 1 0.299975 0.500032 0.271096
899 1 0.500036 0.499988 0.271099
907 1 0.700003 0.499982 0.271095
915 1 0.899964 0.499991 0.271067
886 2 0.0499903 0.550019 0.286853
921 1 2.04045e-05 0.600003 0.271103
894 2 0.250024 0.549992 0.286848
929 1 0.200035 0.599994 0.271078
902 2 0.450039 0.549978 0.286875
937 1 0.400002 0.599959 0.271087
910 2 0.649999 0.55003 0.286846
918 2 0.850011 0.549993 0.286873
928 2 0.149996 0.65002 0.286849
936 2 0.349999 0.649962 0.286856
944 2 0.550007 0.650024 0.286881
945 1 0.599983 0.599983 0.271104
952 2 0.749981 0.65001 0.286855
953 1 0.800024 0.599971 0.271073
960 2 0.949999 0.649968 0.286854
923 1 0.0999605 0.700014 0.271064
931 1 0.299997 0.700024 0.271099
939 1 0.499975 0.700011 0.271067
947 1 0.700015 0.699972 0.271102
955 1 0.89998 0.699977 0.271092
926 2 0.0500176 0.750017 0.286855
961 1 1.49384e-07 0.799988 0.271091
934 2 0.250029 0.750013 0.286869
969 1 0.199979 0.800039 0.27109
942 2 0.450035 0.750034 0.286851
977 1 0.399976 0.800001 0.271099
950 2 0.649969 0.750031 0.286859
958 2 0.849962 0.750016 0.286877
968 2 0.150018 0.850034 0.286859
976 2 0.349997 0.850015 0.286885
984 2 0.549979 0.850033 0.286872
985 1 0.600017 0.799979 0.271078
992 2 0.749993 0.850014 0.286873
993 1 0.799979 0.799974 0.271089
1000 2 0.949987 0.850031 0.286873
963 1 0.0999645 0.899973 0.271101
971 1 0.30002 0.899986 0.271095
979 1 0.50003 0.899967 0.271082
987 1 0.699989 0.899973 0.271081
995 1 0.899985 0.89997 0.271064
966 2 0.0500236 0.950015 0.286867
809 1 0.199959 0.999964 0.271062
974 2 0.250015 0.95002 0.28687
817 1 0.399973 1 0.27109
982 2 0.450005 0.950029 0.286884
990 2 0.650024 0.95004 0.286848
998 2 0.850024 0.949989 0.286883
807 2 0.0499977 0.0499609 0.318435
815 2 0.250011 0.049963 0.318442
823 2 0.44997 0.0499931 0.318438
818 1 0.500008 2.30263e-05 0.302668
831 2 0.649979 0.0500302 0.318452
826 1 0.700011 6.99646e-06 0.302644
839 2 0.849997 0.0500107 0.318424
834 1 0.899971 1.6947e-05 0.302657
812 1 0.199965 0.10002 0.302649
820 1 0.400021 0.0999826 0.302662
828 1 0.600021 0.100001 0.302657
836 1 0.799957 0.100003 0.30263
804 1 1.00002 0.0999631 0.302656
842 1 0.100031 0.20002 0.302648
805 2 0.150015 0.149974 0.318442
850 1 0.299967 0.199995 0.302637
813 2 0.349987 0.150014 0.31844
858 1 0.500035 0.200039 0.302668
821 2 0.549986 0.149981 0.318416
829 2 0.749965 0.149983 0.318444
837 2 0.949993 0.150032 0.318446
847 2 0.0499665 0.249996 0.318452
855 2 0.250031 0.249993 0.318454
863 2 0.450011 0.250026 0.318443
871 2 0.650031 0.249981 0.318442
866 1 0.699968 0.200036 0.302641
879 2 0.84998 0.250015 0.318424
874 1 0.900037 0.199965 0.302646
852 1 0.200003 0.300001 0.302647
860 1 0.399974 0.299978 0.302662
868 1 0.599982 0.30002 0.302661
876 1 0.800038 0.299984 0.302643
844 1 0.999975 0.299966 0.30265
882 1 0.0999976 0.400012 0.302671
845 2 0.149999 0.349964 0.318442
890 1 0.300005 0.400003 0.30266
853 2 0.350002 0.349986 0.318427
898 1 0.500008 0.399978 0.302664
861 2 0.550042 0.350039 0.318433
869 2 0.749987 0.350006 0.318425
877 2 0.949974 0.34999 0.318436
887 2 0.04996 0.449981 0.318457
895 2 0.250019 0.449981 0.318435
903 2 0.449973 0.45004 0.318442
911 2 0.65002 0.450029 0.318456
906 1 0.69996 0.400008 0.302642
919 2 0.850033 0.449971 0.318417
914 1 0.899963 0.399968 0.302657
892 1 0.200006 0.500031 0.302646
900 1 0.399963 0.500042 0.30267
908 1 0.600023 0.499963 0.302642
916 1 0.800036 0.499994 0.302651
884 1 1.00001 0.499958 0.302662
922 1 0.0999728 0.600038 0.302654
885 2 0.150032 0.549975 0.318417
930 1 0.300005 0.599963 0.302659
893 2 0.35002 0.549977 0.318455
901 2 0.549963 0.550031 0.318441
909 2 0.749968 0.549963 0.31843
917 2 0.950015 0.550028 0.31844
927 2 0.0499886 0.650011 0.31845
935 2 0.250003 0.650011 0.318423
943 2 0.450009 0.650016 0.318443
938 1 0.499965 0.599957 0.30266
951 2 0.65001 0.650021 0.318438
946 1 0.700001 0.60001 0.302668
959 2 0.849965 0.650036 0.318449
954 1 0.900033 0.599966 0.302646
924 1 -2.30297e-05 0.699986 0.30267