ITEM: TIMESTEP
2100
ITEM: NUMBER OF ATOMS
1250
ITEM: BOX BOUNDS pp pp pp
0.0000000000000000e+00 4.2500000000000000e+01
0.0000000000000000e+00 4.2500000000000000e+01
-1.7000000000000000e+01 6.8000000000000000e+01
ITEM: ATOMS id type xs ys zs
1 1 0 0 0
8 2 0.15 0.05 0.025
9 1 0.2 0 0
16 2 0.35 0.05 0.025
17 1 0.4 0 0
24 2 0.55 0.05 0.025
25 1 0.6 0 0
32 2 0.75 0.05 0.025
33 1 0.8 0 0
40 2 0.95 0.05 0.025
3 1 0.1 0.1 0
11 1 0.3 0.1 0
19 1 0.5 0.1 0
27 1 0.7 0.1 0
35 1 0.9 0.1 0
6 2 0.05 0.15 0.025
14 2 0.25 0.15 0.025
22 2 0.45 0.15 0.025
30 2 0.65 0.15 0.025
38 2 0.85 0.15 0.025
41 1 0 0.2 0
49 1 0.2 0.2 0
57 1 0.4 0.2 0
65 1 0.6 0.2 0
73 1 0.8 0.2 0
43 1 0.1 0.3 0
48 2 0.15 0.25 0.025
51 1 0.3 0.3 0
56 2 0.35 0.25 0.025
59 1 0.5 0.3 0
64 2 0.55 0.25 0.025
67 1 0.7 0.3 0
72 2 0.75 0.25 0.025
75 1 0.9 0.3 0
80 2 0.95 0.25 0.025
46 2 0.05 0.35 0.025
54 2 0.25 0.35 0.025
62 2 0.45 0.35 0.025
70 2 0.65 0.35 0.025
78 2 0.85 0.35 0.025
81 1 0 0.4 0
89 1 0.2 0.4 0
97 1 0.4 0.4 0
105 1 0.6 0.4 0
113 1 0.8 0.4 0
88 2 0.15 0.45 0.025
96 2 0.35 0.45 0.025
104 2 0.55 0.45 0.025
112 2 0.75 0.45 0.025
120 2 0.95 0.45 0.025
86 2 0.05 0.55 0.025
83 1 0.1 0.5 0
91 1 0.3 0.5 0
94 2 0.25 0.55 0.025
102 2 0.45 0.55 0.025
99 1 0.5 0.5 0
110 2 0.65 0.55 0.025
107 1 0.7 0.5 0
118 2 0.85 0.55 0.025
115 1 0.9 0.5 0
121 1 0 0.6 0
129 1 0.2 0.6 0
137 1 0.4 0.6 0
145 1 0.6 0.6 0
153 1 0.8 0.6 0
128 2 0.15 0.65 0.025
136 2 0.35 0.65 0.025
144 2 0.55 0.65 0.025
152 2 0.75 0.65 0.025
160 2 0.95 0.65 0.025
123 1 0.1 0.7 0
131 1 0.3 0.7 0
139 1 0.5 0.7 0
147 1 0.7 0.7 0
155 1 0.9 0.7 0
126 2 0.05 0.75 0.025
161 1 0 0.8 0
169 1 0.2 0.8 0
134 2 0.25 0.75 0.025
177 1 0.4 0.8 0
142 2 0.45 0.75 0.025
185 1 0.6 0.8 0
150 2 0.65 0.75 0.025
193 1 0.8 0.8 0
158 2 0.85 0.75 0.025
168 2 0.15 0.85 0.025
176 2 0.35 0.85 0.025
184 2 0.55 0.85 0.025
192 2 0.75 0.85 0.025
200 2 0.95 0.85 0.025
163 1 0.1 0.9 0
171 1 0.3 0.9 0
179 1 0.5 0.9 0
187 1 0.7 0.9 0
195 1 0.9 0.9 0
166 2 0.05 0.95 0.025
174 2 0.25 0.95 0.025
182 2 0.45 0.95 0.025
18 1 0.503059 0.997851 0.0312589
190 2 0.65 0.95 0.025
198 2 0.85 0.95 0.025
7 2 0.0520232 0.0594866 0.0513068
2 1 0.0912877 0.0094899 0.0354854
10 1 0.294442 0.00607622 0.0366533
15 2 0.253409 0.0580252 0.0500715
23 2 0.455935 0.0447025 0.0472427
31 2 0.657412 0.0538185 0.0481625
26 1 0.69948 0.00260164 0.0346544
39 2 0.854232 0.0589146 0.0521661
34 1 0.891201 0.00910048 0.0350109
12 1 0.200276 0.0998014 0.0373834
20 1 0.404077 0.0949812 0.0381414
219 1 0.5186 0.0773145 0.0557288
28 1 0.605494 0.0966013 0.0353363
36 1 0.801718 0.0986426 0.0375727
4 1 0.999292 0.100874 0.0379103
42 1 0.111227 0.187399 0.037267
5 2 0.145545 0.133652 0.0538629
13 2 0.350627 0.138866 0.0497643
21 2 0.553563 0.137499 0.0499494
29 2 0.74855 0.136546 0.0519685
37 2 0.945652 0.138064 0.0537321
50 1 0.309689 0.190166 0.0360455
58 1 0.511241 0.187601 0.0360634
66 1 0.709862 0.188663 0.0362087
74 1 0.90465 0.195545 0.0420294
52 1 0.188017 0.310767 0.0376034
60 1 0.392825 0.307928 0.0377675
68 1 0.594431 0.305783 0.0370168
76 1 0.794444 0.305165 0.0366348
44 1 0.993424 0.305784 0.0371365
45 2 0.139412 0.352932 0.0537704
53 2 0.350457 0.350417 0.0571124
61 2 0.55118 0.348761 0.0549042
69 2 0.750191 0.34938 0.0525468
77 2 0.945059 0.340702 0.0561563
82 1 0.0991238 0.402121 0.0375256
90 1 0.308368 0.391847 0.0374938
98 1 0.508114 0.392649 0.0371376
106 1 0.706214 0.393965 0.036334
114 1 0.908374 0.390328 0.0379167
84 1 0.0108803 0.491218 0.0379512
87 2 0.0648655 0.457342 0.0538806
95 2 0.238065 0.4717 0.0589389
85 2 0.148549 0.553146 0.0533238
92 1 0.194048 0.50705 0.0372973
93 2 0.33006 0.551066 0.0543355
100 1 0.383994 0.514077 0.0376278
122 1 0.101898 0.598137 0.0375098
130 1 0.292348 0.605522 0.0396414
138 1 0.489662 0.61166 0.0391267
146 1 0.688898 0.611895 0.039526
154 1 0.894813 0.605041 0.0354703
127 2 0.0550791 0.641324 0.0553355
135 2 0.239463 0.643445 0.0581422
143 2 0.451091 0.656072 0.0609317
151 2 0.650546 0.657259 0.0616832
159 2 0.86395 0.653145 0.0557734
124 1 0.00643135 0.690811 0.041595
132 1 0.201894 0.693807 0.0407214
140 1 0.407623 0.692638 0.0388173
148 1 0.608176 0.692661 0.038839
156 1 0.812162 0.689863 0.0382786
162 1 0.0933248 0.807478 0.0365083
167 2 0.0559324 0.857264 0.0529305
170 1 0.286851 0.818841 0.0391972
178 1 0.489717 0.812967 0.036947
183 2 0.454427 0.866724 0.0533129
191 2 0.645578 0.862517 0.0501187
186 1 0.688616 0.812573 0.0360388
199 2 0.848157 0.865706 0.0525584
194 1 0.887776 0.813392 0.0369102
164 1 0.00598767 0.893928 0.0361822
172 1 0.199636 0.902336 0.039296
175 2 0.254944 0.875867 0.0581489
180 1 0.403027 0.895575 0.0337996
379 1 0.474985 0.934431 0.0593031
188 1 0.592854 0.904511 0.0355957
387 1 0.679814 0.923233 0.0569094
196 1 0.795232 0.904163 0.0371392
173 2 0.324882 0.968465 0.0618949
181 2 0.542264 0.949351 0.0493385
189 2 0.743603 0.951035 0.0483644
217 1 0.369666 0.0111454 0.0780738
216 2 0.329148 0.0626697 0.091533
224 2 0.542021 0.0418533 0.0834616
232 2 0.733376 0.0385151 0.0871145
240 2 0.927359 0.0383691 0.0933074
203 1 0.103289 0.0871567 0.0709234
211 1 0.302896 0.0981299 0.0649109
227 1 0.705943 0.0886035 0.0665275
235 1 0.9073 0.0882998 0.0699705
267 1 0.718471 0.244574 0.0847295
79 2 0.880658 0.23556 0.0707524
47 2 0.0453619 0.296471 0.0912004
71 2 0.664155 0.287898 0.0867128
275 1 0.917372 0.294279 0.0795235
243 1 0.10717 0.331022 0.0834411
55 2 0.256166 0.340728 0.0838644
251 1 0.32902 0.34351 0.0912152
63 2 0.463858 0.337232 0.0927237
259 1 0.532118 0.327953 0.0872738
281 1 0.0267172 0.427275 0.0786219
289 1 0.202595 0.428975 0.0802411
288 2 0.151512 0.470195 0.0931725
320 2 0.980739 0.480107 0.0901486
283 1 0.107918 0.506028 0.0707442
286 2 0.0669389 0.549699 0.0898332
294 2 0.229211 0.557411 0.0909335
291 1 0.278122 0.520491 0.0737079
108 1 0.618059 0.507483 0.0926457
116 1 0.795981 0.538448 0.088432
117 2 0.980196 0.527861 0.0647005
321 1 0.0188907 0.587637 0.0722374
329 1 0.188286 0.600117 0.0722427
360 2 0.969083 0.621178 0.0904882
323 1 0.0974127 0.681249 0.076459
328 2 0.139584 0.634848 0.0925828
355 1 0.921982 0.665361 0.0760054
125 2 0.15682 0.721765 0.0662798
331 1 0.257747 0.689168 0.0841367
157 2 0.967586 0.717244 0.0694304
363 1 0.0990328 0.901273 0.0694437
165 2 0.158039 0.936643 0.0629196
395 1 0.876895 0.914587 0.0735188
197 2 0.942666 0.923336 0.0850044
209 1 0.169752 0.991073 0.0851043
371 1 0.270529 0.937614 0.0778203
382 2 0.440075 0.995709 0.0720161
225 1 0.577327 0.983981 0.0738842
390 2 0.643616 0.963241 0.0797916
233 1 0.774851 0.989149 0.0728621
398 2 0.837889 0.968789 0.0839248
202 1 0.0646265 0.0305317 0.120551
208 2 0.11477 0.0345569 0.094239
210 1 0.268694 0.0569498 0.109938
218 1 0.481815 0.0229863 0.0977748
226 1 0.680244 0.003453 0.101659
234 1 0.867222 0.0137711 0.105793
212 1 0.227278 0.182287 0.121382
214 2 0.261591 0.243186 0.115544
272 2 0.766615 0.242758 0.109674
273 1 0.83282 0.233624 0.0979612
241 1 0.00280672 0.254499 0.109767
248 2 0.152825 0.29973 0.105578
249 1 0.219548 0.283609 0.0961269
257 1 0.426014 0.287432 0.107915
264 2 0.564567 0.309799 0.117221
265 1 0.634711 0.299215 0.117865
280 2 0.941013 0.290362 0.112939
244 1 0.0414827 0.342705 0.117913
252 1 0.187073 0.351269 0.122635
256 2 0.365643 0.316124 0.120312
246 2 0.07448 0.38897 0.097021
282 1 0.112034 0.43362 0.115639
254 2 0.238475 0.387616 0.10524
103 2 0.486059 0.454356 0.116389
111 2 0.672574 0.478622 0.108092
119 2 0.838618 0.493314 0.104471
315 1 0.908045 0.486356 0.0965162
284 1 0.0263313 0.51426 0.111665
292 1 0.18855 0.517326 0.111061
101 2 0.57799 0.531 0.119381
322 1 0.102533 0.590665 0.111914
109 2 0.748085 0.565226 0.109665
324 1 0.010305 0.65455 0.11307
339 1 0.458704 0.67598 0.0971195
347 1 0.655449 0.678809 0.0983588
326 2 0.0472839 0.709873 0.0997234
332 1 0.150003 0.688181 0.114886
334 2 0.196685 0.723872 0.0944832
133 2 0.316244 0.704295 0.104374
141 2 0.520454 0.709578 0.0999703
385 1 0.56776 0.737725 0.122121
149 2 0.720069 0.703594 0.10555
361 1 0.98099 0.743015 0.102425
369 1 0.180597 0.790944 0.106993
374 2 0.238568 0.995441 0.0939392
201 1 0.969357 0.982043 0.0997076
207 2 0.064403 0.0995989 0.132519
215 2 0.266342 0.122867 0.127993
204 1 0.0304352 0.158842 0.144412
403 1 0.126418 0.130009 0.125545
411 1 0.309082 0.154378 0.152816
223 2 0.46955 0.157986 0.146963
206 2 0.0524379 0.217206 0.126796
205 2 0.157941 0.193092 0.126603
213 2 0.352227 0.204279 0.139451
220 1 0.422387 0.207941 0.140429
221 2 0.558317 0.227542 0.153859
228 1 0.628577 0.218688 0.156008
236 1 0.8271 0.189172 0.150322
238 2 0.859121 0.236552 0.130526
242 1 0.116155 0.25196 0.125809
247 2 0.0825735 0.308497 0.140952
250 1 0.320296 0.265639 0.132888
222 2 0.450518 0.272683 0.140494
258 1 0.522044 0.283398 0.142355
230 2 0.67281 0.265255 0.142214
266 1 0.743073 0.251711 0.142755
274 1 0.892146 0.295657 0.140315
260 1 0.414479 0.334148 0.148207
245 2 0.14742 0.397256 0.139145
297 1 0.443532 0.419066 0.137192
270 2 0.668994 0.400809 0.150205
278 2 0.836631 0.41821 0.145238
287 2 0.0677516 0.475927 0.132325
299 1 0.521427 0.499396 0.136292
304 2 0.590283 0.482108 0.144752
305 1 0.632683 0.437328 0.1274
312 2 0.749613 0.485964 0.147715
313 1 0.796181 0.457203 0.125882
483 1 0.106438 0.515974 0.153189
285 2 0.145773 0.55403 0.131886
310 2 0.662408 0.559553 0.14993
307 1 0.706167 0.524522 0.128524
327 2 0.0548955 0.620227 0.132733
336 2 0.397434 0.61003 0.154679
337 1 0.440952 0.573766 0.134862
345 1 0.609242 0.587345 0.133047
353 1 0.781157 0.60899 0.130414
318 2 0.825538 0.572611 0.149879
523 1 0.0716194 0.67673 0.151289
342 2 0.431474 0.686608 0.131143
344 2 0.563165 0.624803 0.151156
352 2 0.737206 0.643814 0.150712
325 2 0.0913044 0.725019 0.126883
377 1 0.372181 0.725173 0.125321
350 2 0.620568 0.694195 0.130469
393 1 0.761378 0.744254 0.126018
358 2 0.813192 0.718955 0.14607
400 2 0.926007 0.749529 0.127557
362 1 0.0814515 0.795813 0.137031
368 2 0.151092 0.806141 0.138524
376 2 0.36972 0.771839 0.152396
384 2 0.550133 0.781247 0.148166
392 2 0.729761 0.788107 0.148053
394 1 0.872193 0.754913 0.153365
367 2 0.0480494 0.851958 0.153631
364 1 0.00322192 0.906423 0.143767
366 2 0.0182116 0.972134 0.125208
414 2 0.283192 0.184965 0.182449
419 1 0.51535 0.18336 0.169957
231 2 0.669993 0.167575 0.167816
239 2 0.877137 0.145686 0.161278
435 1 0.927257 0.180069 0.178412
237 2 0.997242 0.171102 0.175579
449 1 0.245788 0.239032 0.171818
427 1 0.72027 0.195942 0.187211
229 2 0.778696 0.221157 0.170705
255 2 0.292774 0.286921 0.163348
457 1 0.449621 0.277869 0.177091
443 1 0.11066 0.357772 0.161085
253 2 0.376755 0.352177 0.176634
262 2 0.475127 0.371803 0.16115
263 2 0.509318 0.317507 0.174544
268 1 0.625901 0.357891 0.167467
276 1 0.802227 0.369461 0.162924
279 2 0.859485 0.330021 0.168849
290 1 0.362529 0.420653 0.176946
298 1 0.526726 0.417478 0.173527
269 2 0.756821 0.401598 0.184928
277 2 0.919913 0.418602 0.182713
296 2 0.407238 0.460237 0.158845
306 1 0.711152 0.442802 0.168095
314 1 0.873717 0.458607 0.166323
300 1 0.447672 0.503014 0.177708
302 2 0.485289 0.542751 0.156382
308 1 0.622661 0.519382 0.170301
316 1 0.787155 0.527866 0.168294
330 1 0.362556 0.570505 0.176535
338 1 0.525924 0.587671 0.173479
346 1 0.696734 0.603795 0.170341
354 1 0.863607 0.610858 0.171909
340 1 0.435111 0.663708 0.166931
348 1 0.600893 0.676919 0.165063
351 2 0.646985 0.643667 0.186028
356 1 0.776011 0.685207 0.171025
370 1 0.340112 0.730595 0.175878
378 1 0.511467 0.747224 0.171717
357 2 0.896503 0.725432 0.183053
386 1 0.686484 0.754714 0.169815
372 1 0.175097 0.816458 0.171848
380 1 0.406949 0.813655 0.174592
381 2 0.55173 0.863645 0.186325
388 1 0.592821 0.821997 0.167142
389 2 0.726456 0.864143 0.185305
396 1 0.774592 0.82476 0.167748
399 2 0.846464 0.817601 0.165288
595 1 0.89072 0.857331 0.185359
397 2 0.94435 0.888491 0.164665
441 1 0.0302292 0.205037 0.201749
450 1 0.310762 0.209673 0.212831
422 2 0.474266 0.219588 0.191453
430 2 0.683826 0.227971 0.212749
473 1 0.827936 0.229912 0.197455
438 2 0.897058 0.211883 0.205808
448 2 0.203054 0.262601 0.196149
456 2 0.360845 0.254924 0.20582
451 1 0.328923 0.31013 0.191107
465 1 0.626983 0.267909 0.205652
480 2 0.994378 0.261576 0.212097
454 2 0.283194 0.341268 0.21347
459 1 0.541711 0.337906 0.205548
271 2 0.66427 0.316669 0.187843
467 1 0.714476 0.356528 0.202485
475 1 0.880814 0.368623 0.197385
489 1 0.272913 0.410015 0.211266
497 1 0.456721 0.424424 0.215142
261 2 0.58188 0.387972 0.189725
505 1 0.626109 0.432316 0.206978
295 2 0.328698 0.450635 0.203618
303 2 0.495546 0.464733 0.194169
311 2 0.666056 0.478763 0.188926
513 1 0.792727 0.445297 0.206187
319 2 0.831165 0.49172 0.188425
481 1 0.95963 0.457459 0.203572
293 2 0.406307 0.540618 0.198753
499 1 0.539827 0.508515 0.210958
301 2 0.576597 0.554007 0.191296
507 1 0.706218 0.52108 0.209115
515 1 0.870745 0.532601 0.209085
529 1 0.274941 0.572283 0.212536
335 2 0.320222 0.610392 0.194589
537 1 0.448314 0.588304 0.21373
545 1 0.613901 0.602821 0.20889
309 2 0.742431 0.562858 0.188235
553 1 0.779164 0.602431 0.210069
317 2 0.911433 0.577932 0.191863
521 1 0.956096 0.612783 0.21342
531 1 0.359561 0.656055 0.211597
343 2 0.481393 0.630854 0.19046
539 1 0.519311 0.673433 0.212628
547 1 0.682459 0.680975 0.209444
359 2 0.818129 0.646637 0.191058
333 2 0.39505 0.699368 0.190561
577 1 0.429108 0.747674 0.210592
341 2 0.559186 0.710549 0.189857
349 2 0.728388 0.718764 0.190892
555 1 0.860588 0.69049 0.207831
375 2 0.234645 0.799404 0.190176
383 2 0.465918 0.78785 0.189104
585 1 0.597572 0.754198 0.21063
391 2 0.639051 0.790732 0.188559
593 1 0.766101 0.761565 0.210622
561 1 0.939787 0.76858 0.199804
563 1 0.0584543 0.857242 0.189077
365 2 0.130221 0.849524 0.193219
409 1 0.177721 0.869805 0.21772
571 1 0.290415 0.839236 0.200971
373 2 0.364837 0.842035 0.201273
579 1 0.507423 0.830588 0.207849
587 1 0.67959 0.834409 0.206937
600 2 0.898289 0.8155 0.215361
417 1 0.403918 0.90052 0.212005
425 1 0.591855 0.909225 0.203465
433 1 0.758448 0.916286 0.201243
440 2 0.899236 0.912569 0.20867
401 1 0.961919 0.926591 0.193098
566 2 0.999259 0.876461 0.210025
408 2 0.193866 0.0103948 0.23642
420 1 0.427973 0.00609545 0.239044
428 1 0.591901 0.00333254 0.237293
436 1 0.756674 0.00484972 0.235226
406 2 0.0560082 0.18077 0.233705
442 1 0.0957905 0.240617 0.243353
455 2 0.277997 0.243048 0.240748
458 1 0.49668 0.233964 0.223688
463 2 0.43876 0.207036 0.241771
474 1 0.951355 0.218513 0.229414
444 1 0.016632 0.307545 0.236085
452 1 0.237738 0.291549 0.222784
460 1 0.383892 0.253615 0.238676
464 2 0.560232 0.272556 0.220395
466 1 0.729377 0.259945 0.233541
472 2 0.797451 0.253459 0.2265
490 1 0.286213 0.350155 0.248509
476 1 0.805599 0.362888 0.242041
446 2 0.014912 0.375688 0.227927
482 1 0.0537049 0.429387 0.239862
462 2 0.504323 0.379511 0.227747
498 1 0.543877 0.422786 0.246736
470 2 0.677058 0.396478 0.223705
506 1 0.713856 0.432545 0.247298
478 2 0.842024 0.405899 0.221232
488 2 0.230477 0.440703 0.235805
496 2 0.416543 0.464871 0.23557
504 2 0.583436 0.466592 0.228722
512 2 0.75041 0.481254 0.22881
520 2 0.920078 0.495015 0.225263
514 1 0.880428 0.448193 0.242353
494 2 0.309667 0.536945 0.236961
491 1 0.364475 0.501948 0.220435
502 2 0.497702 0.549809 0.230627
516 1 0.791543 0.522269 0.249323
484 1 0.966589 0.53155 0.245308
486 2 0.00751411 0.58769 0.236357
528 2 0.228215 0.619536 0.222494
510 2 0.671497 0.574711 0.225699
518 2 0.826686 0.568677 0.229899
554 1 0.869611 0.611478 0.248209
532 1 0.258094 0.670025 0.241184
536 2 0.405822 0.628911 0.233256
544 2 0.570134 0.637835 0.230992
552 2 0.719361 0.628508 0.224859
560 2 0.906936 0.654143 0.227831
534 2 0.276136 0.734856 0.231655
542 2 0.472524 0.713922 0.232672
550 2 0.642625 0.718685 0.23172
558 2 0.818578 0.730697 0.227611
526 2 0.982148 0.738168 0.222687
524 1 0.944404 0.701512 0.245214
569 1 0.218343 0.769309 0.221117
570 1 0.333022 0.765964 0.245882
576 2 0.386242 0.796025 0.227432
584 2 0.553118 0.795782 0.22902
592 2 0.722549 0.801201 0.228901
594 1 0.859786 0.780192 0.241476
568 2 0.188375 0.818863 0.241633
580 1 0.424013 0.843001 0.24759
588 1 0.594855 0.840222 0.247377
596 1 0.764791 0.846007 0.245518
564 1 0.937302 0.867101 0.230023
574 2 0.249327 0.882414 0.219824
582 2 0.465715 0.876402 0.225056
418 1 0.509982 0.919844 0.242277
590 2 0.635904 0.875625 0.224958
426 1 0.675462 0.922883 0.241585
598 2 0.801552 0.883899 0.222974
434 1 0.850958 0.926773 0.235064
416 2 0.378469 0.960253 0.227443
424 2 0.55316 0.954716 0.221067
432 2 0.716436 0.958142 0.219246
412 1 0.246128 0.0454525 0.251821
611 1 0.348471 0.0303395 0.275686
421 2 0.554537 0.0537433 0.253261
619 1 0.510037 0.0170677 0.273609
627 1 0.674692 0.01568 0.274793
429 2 0.715779 0.0503769 0.252217
635 1 0.84265 0.0183708 0.270823
407 2 0.109716 0.0635251 0.263558
405 2 0.213019 0.102032 0.26555
413 2 0.407468 0.0643058 0.259067
665 1 0.594037 0.106142 0.267686
673 1 0.748006 0.103644 0.26883
404 1 0.0811534 0.128469 0.256883
649 1 0.228496 0.164069 0.280859
657 1 0.425439 0.136994 0.250072
471 2 0.59769 0.179235 0.263836
437 2 0.00337176 0.195859 0.253057
641 1 0.0446071 0.220601 0.280791
468 1 0.579281 0.246338 0.252735
447 2 0.0565437 0.283888 0.262891
453 2 0.323782 0.286121 0.253634
461 2 0.587532 0.304153 0.274948
643 1 0.0684338 0.34995 0.276585
705 1 0.628884 0.368774 0.273555
479 2 0.850867 0.320956 0.257602
675 1 0.895081 0.359488 0.275968
445 2 0.104884 0.395698 0.25723
689 1 0.160977 0.424434 0.273063
495 2 0.227804 0.395388 0.259751
511 2 0.65604 0.436508 0.267475
469 2 0.765825 0.399666 0.264248
477 2 0.928584 0.407074 0.257431
487 2 0.0118664 0.479377 0.254773
492 1 0.272616 0.487857 0.254169
503 2 0.507257 0.464341 0.267486
508 1 0.623794 0.493711 0.253531
519 2 0.840469 0.483224 0.265597
681 1 0.975717 0.441057 0.277051
500 1 0.462652 0.506268 0.251291
501 2 0.589196 0.546282 0.270145
509 2 0.753088 0.561554 0.271864
522 1 0.0696612 0.604605 0.257358
485 2 0.132502 0.584051 0.274429
729 1 0.20136 0.61352 0.277026
530 1 0.313526 0.588503 0.261315
493 2 0.374474 0.570284 0.275146
538 1 0.544091 0.584668 0.250248
546 1 0.701871 0.600608 0.25728
517 2 0.91699 0.568541 0.263071
527 2 0.0545529 0.658173 0.279093
535 2 0.270567 0.641991 0.272729
540 1 0.422312 0.684313 0.253579
543 2 0.454326 0.651455 0.279894
548 1 0.603818 0.679475 0.25424
551 2 0.654721 0.642517 0.272899
559 2 0.832316 0.652486 0.269803
533 2 0.369433 0.72627 0.269253
541 2 0.555198 0.722064 0.272498
549 2 0.734746 0.728716 0.269902
556 1 0.785827 0.693582 0.252703
557 2 0.900293 0.741625 0.263062
761 1 0.0313748 0.795818 0.280025
583 2 0.466336 0.80412 0.268376
578 1 0.511579 0.759639 0.251125
586 1 0.684364 0.761958 0.250726
591 2 0.639632 0.804777 0.268533
562 1 0.139106 0.813705 0.267142
572 1 0.246082 0.85289 0.25199
575 2 0.300342 0.816373 0.263716
599 2 0.815399 0.814019 0.263789
795 1 0.856499 0.861614 0.27971
573 2 0.381891 0.893595 0.262869
617 1 0.426903 0.934572 0.279913
581 2 0.552592 0.885732 0.26469
589 2 0.720266 0.888465 0.262679
633 1 0.763247 0.936235 0.276979
597 2 0.89884 0.896293 0.256987
402 1 0.134381 0.999149 0.254142
565 2 0.149815 0.952807 0.28034
415 2 0.285103 0.994909 0.268408
410 1 0.33259 0.944212 0.253096
423 2 0.471012 0.968095 0.258687
431 2 0.634321 0.968155 0.259073
439 2 0.805628 0.969678 0.253551
601 1 0.940624 0.941411 0.274401
608 2 0.194661 0.0340802 0.308149
620 1 0.424292 0.0271695 0.310227
622 2 0.456827 0.0618041 0.28357
636 1 0.762722 0.0284213 0.31018
604 1 0.0647471 0.101434 0.308672
603 1 0.162282 0.076742 0.285452
630 2 0.63322 0.0649863 0.289518
666 1 0.675026 0.108844 0.307121
638 2 0.79659 0.0637339 0.28553
606 2 0.0808335 0.158982 0.288752
642 1 0.130321 0.181928 0.311297
614 2 0.266818 0.13578 0.306257
672 2 0.701425 0.15145 0.283144
648 2 0.182909 0.212658 0.293982
667 1 0.65273 0.206098 0.281505
680 2 0.0304368 0.253588 0.311667
651 1 0.310111 0.271056 0.289007
654 2 0.256834 0.310197 0.300801
670 2 0.629017 0.270809 0.296247
659 1 0.528117 0.315238 0.29646
646 2 0.0237474 0.39742 0.291847
697 1 0.462572 0.424097 0.284796
662 2 0.505179 0.381486 0.302762
713 1 0.806487 0.43748 0.285901
678 2 0.858268 0.396039 0.298954
682 1 0.0646076 0.440915 0.31056
688 2 0.129017 0.463152 0.300033
696 2 0.417371 0.47063 0.298655
704 2 0.588265 0.464151 0.308828
712 2 0.7666 0.474386 0.308891
720 2 0.937262 0.485012 0.296715
683 1 0.111568 0.535796 0.299316
691 1 0.362223 0.513699 0.294609
699 1 0.547806 0.503362 0.288238
702 2 0.507509 0.545606 0.306452
710 2 0.669427 0.552096 0.311902
707 1 0.719619 0.517436 0.293655
715 1 0.884178 0.524297 0.283852
686 2 0.0442787 0.564444 0.309337
737 1 0.401963 0.617162 0.296445
745 1 0.624748 0.591166 0.29182
753 1 0.79459 0.607635 0.289363
718 2 0.845564 0.567447 0.30428
721 1 0.00964738 0.627476 0.301412
736 2 0.355337 0.660012 0.311505
747 1 0.69589 0.687287 0.290944
752 2 0.747666 0.648552 0.307341
760 2 0.937398 0.659878 0.301619
723 1 0.0968818 0.711194 0.29167
731 1 0.312603 0.694754 0.288862
734 2 0.262602 0.737584 0.309419
742 2 0.456616 0.737136 0.310854
739 1 0.501774 0.695926 0.293073
750 2 0.647976 0.728678 0.308501
758 2 0.829992 0.73842 0.304871
755 1 0.877045 0.695773 0.287418
726 2 0.0466816 0.752216 0.307479
525 2 0.152116 0.755197 0.284503
777 1 0.41493 0.77138 0.287728
785 1 0.598259 0.767129 0.290407
793 1 0.778473 0.773926 0.286704
567 2 0.0843183 0.842231 0.284739
771 1 0.340464 0.856714 0.283521
776 2 0.373614 0.81648 0.306555
779 1 0.509147 0.850141 0.285858
784 2 0.554438 0.814672 0.306912
787 1 0.681679 0.850871 0.285578
792 2 0.730922 0.814895 0.304219
800 2 0.905206 0.844059 0.305352
764 1 0.977852 0.861925 0.305953
766 2 0.00489561 0.91606 0.287095
763 1 0.0805084 0.91402 0.284223
782 2 0.467474 0.898381 0.302405
625 1 0.593388 0.933408 0.281512
790 2 0.638835 0.897626 0.302467
798 2 0.808336 0.899719 0.296564
609 1 0.222934 0.977765 0.289428
610 1 0.334195 0.943682 0.310904
616 2 0.382738 0.981766 0.294045
624 2 0.551955 0.982655 0.297037
632 2 0.72101 0.980665 0.294907
634 1 0.851558 0.94473 0.31173
640 2 0.890552 0.981749 0.289404
607 2 0.0984842 0.0511129 0.329425
602 1 0.157977 0.00759299 0.335733
628 1 0.594922 0.0300297 0.313429
612 1 0.223454 0.0913047 0.323578
621 2 0.558288 0.0824055 0.329978
629 2 0.723849 0.077627 0.326656
835 1 0.96786 0.0898825 0.339247
637 2 0.013304 0.134664 0.32588
605 2 0.168714 0.137392 0.332521
650 1 0.301745 0.1836 0.324982
865 1 0.598847 0.140894 0.340184
873 1 0.757342 0.131566 0.342625
647 2 0.0844788 0.222929 0.329866
655 2 0.248288 0.226088 0.335863
656 2 0.345374 0.234817 0.314223
671 2 0.607935 0.218971 0.340789
645 2 0.164565 0.308306 0.330281
652 1 0.210072 0.26489 0.313622
664 2 0.523005 0.28495 0.328496
668 1 0.593607 0.288117 0.327125
679 2 0.903693 0.303126 0.329724
674 1 0.965463 0.261137 0.32771
690 1 0.276403 0.364024 0.322482
653 2 0.324836 0.326336 0.341754
661 2 0.583748 0.362168 0.332735
676 1 0.843388 0.341772 0.319938
644 1 0.985472 0.359522 0.313351
695 2 0.230918 0.417915 0.335683
698 1 0.543814 0.420387 0.324827
905 1 0.648871 0.382262 0.341112
706 1 0.743999 0.432785 0.335499
669 2 0.792561 0.379974 0.335985
677 2 0.945911 0.399945 0.333592
687 2 0.0258771 0.481439 0.33193
692 1 0.168429 0.462506 0.33152
703 2 0.494736 0.465802 0.339157
719 2 0.859631 0.47859 0.336674
714 1 0.900577 0.439816 0.31603
883 1 0.0668453 0.536232 0.341845
685 2 0.138443 0.530538 0.333457
694 2 0.354023 0.548361 0.326031
700 1 0.453367 0.510879 0.320325
708 1 0.630925 0.501377 0.330122
716 1 0.808916 0.521762 0.324346
709 2 0.76076 0.561074 0.342681
684 1 0.982766 0.526304 0.314571
735 2 0.24415 0.620865 0.335348
730 1 0.319521 0.613283 0.33207
693 2 0.415127 0.572915 0.324597
738 1 0.547499 0.58002 0.329073
746 1 0.710675 0.602892 0.327376
754 1 0.893149 0.612062 0.319588
717 2 0.94172 0.568732 0.334779
727 2 0.0261113 0.66077 0.332204
722 1 0.0961031 0.638524 0.332458
728 2 0.145741 0.678082 0.314498
732 1 0.219449 0.680768 0.319748
744 2 0.583041 0.629909 0.312469
748 1 0.609765 0.686565 0.32993
759 2 0.844948 0.651844 0.338319
923 1 0.0675032 0.720649 0.337951
725 2 0.14183 0.727838 0.335181
740 1 0.402423 0.703157 0.327413
741 2 0.556363 0.734616 0.342965
749 2 0.741689 0.734256 0.342015
756 1 0.791037 0.693418 0.324638
757 2 0.92912 0.747327 0.333975
724 1 0.981898 0.712529 0.315995
769 1 0.189287 0.767631 0.314327
770 1 0.314253 0.786305 0.322587
778 1 0.506945 0.778746 0.326571
786 1 0.69081 0.774461 0.325549
794 1 0.871846 0.786758 0.321701
767 2 0.0188319 0.839678 0.332561
762 1 0.0824079 0.815904 0.318429
768 2 0.158682 0.835296 0.321267
775 2 0.272721 0.84259 0.33564
780 1 0.417812 0.864186 0.322055
783 2 0.462256 0.826819 0.342572
788 1 0.596233 0.861602 0.324211
791 2 0.645028 0.821197 0.341785
796 1 0.772794 0.862254 0.320193
799 2 0.820487 0.824257 0.33864
772 1 0.218383 0.886704 0.32379
773 2 0.373412 0.913657 0.335856
781 2 0.554075 0.911213 0.339677
789 2 0.731233 0.907236 0.338322
797 2 0.89683 0.897729 0.32675
774 2 0.262428 0.941943 0.313476
623 2 0.466911 0.996404 0.333585
618 1 0.509365 0.947098 0.318515
626 1 0.683158 0.944166 0.318545
631 2 0.642197 0.995231 0.333746
639 2 0.808404 0.989473 0.328426
801 1 0.0510843 0.00818381 0.344964
840 2 0.00718577 0.0534756 0.360944
808 2 0.160368 0.0446392 0.367833
615 2 0.261615 0.0482139 0.34469
816 2 0.368873 0.0195997 0.363899
819 1 0.50636 0.0492575 0.348817
824 2 0.557597 0.0143724 0.3704
827 1 0.686342 0.0415584 0.34962
832 2 0.736788 0.00654789 0.369497
836 1 0.787611 0.0618668 0.373878
803 1 0.124387 0.0996627 0.352399
812 1 0.226224 0.0711129 0.372627
811 1 0.330298 0.067509 0.345054
822 2 0.454284 0.0997994 0.359214
830 2 0.646597 0.0996618 0.357457
838 2 0.813842 0.0893097 0.344318
841 1 0.0394606 0.181126 0.348425
806 2 0.0792295 0.143041 0.370927
849 1 0.201528 0.185623 0.352934
814 2 0.243983 0.142002 0.37122
850 1 0.31148 0.166885 0.372091
613 2 0.343632 0.139518 0.344197
857 1 0.413224 0.157538 0.349731
866 1 0.687329 0.149285 0.372232
848 2 0.157556 0.234873 0.368081
856 2 0.327035 0.236466 0.367896
663 2 0.434902 0.22834 0.351414
658 1 0.507149 0.235548 0.351809
864 2 0.570781 0.229284 0.370627
867 1 0.672447 0.248795 0.348703
872 2 0.712987 0.189195 0.346003
880 2 0.988558 0.227244 0.356347
843 1 0.112799 0.277858 0.348987
851 1 0.277312 0.278375 0.354348
660 1 0.370941 0.266069 0.343818
846 2 0.0653163 0.32661 0.36418
889 1 0.196927 0.358962 0.34909
854 2 0.234597 0.320819 0.372234
859 1 0.525266 0.339917 0.35008
870 2 0.665002 0.32081 0.359084
875 1 0.917945 0.351495 0.354229
882 1 0.0935742 0.386617 0.351008
888 2 0.13858 0.436574 0.361368
897 1 0.347366 0.384636 0.359371
913 1 0.830511 0.425873 0.354633
878 2 0.86565 0.3776 0.37315
891 1 0.270784 0.464073 0.356696
896 2 0.343191 0.456641 0.36841
711 2 0.675183 0.451745 0.345483
912 2 0.772427 0.462247 0.366308
881 1 0.984471 0.443165 0.352284
920 2 0.939374 0.477237 0.373894
894 2 0.244318 0.532563 0.358652
902 2 0.451891 0.552276 0.373409
899 1 0.511731 0.522694 0.358058
701 2 0.582987 0.53426 0.351474
907 1 0.719146 0.509258 0.356954
918 2 0.854822 0.557911 0.373393
915 1 0.901715 0.522514 0.35315
886 2 0.0322156 0.568286 0.368913
929 1 0.189513 0.575146 0.344923
937 1 0.410195 0.602957 0.357015
945 1 0.627306 0.589095 0.357969
953 1 0.806819 0.606066 0.358905
921 1 0.987124 0.61281 0.351715
928 2 0.145349 0.630317 0.357912
935 2 0.244098 0.643359 0.36707
936 2 0.340424 0.628482 0.365167
743 2 0.434392 0.669422 0.353625
751 2 0.662624 0.64476 0.344472
960 2 0.940997 0.65528 0.36937
932 1 0.186026 0.696884 0.36166
934 2 0.252493 0.74014 0.368377
931 1 0.31735 0.701507 0.364108
733 2 0.357975 0.746633 0.343966
939 1 0.495674 0.706635 0.357353
947 1 0.703203 0.690812 0.36276
958 2 0.842499 0.740664 0.370271
955 1 0.891285 0.698171 0.353217
926 2 0.0313513 0.755719 0.363096
962 1 0.0995381 0.789487 0.364269
969 1 0.226967 0.806612 0.356318
977 1 0.406938 0.791873 0.358472
985 1 0.600014 0.780178 0.360741
993 1 0.784135 0.779678 0.359336
961 1 0.97508 0.793274 0.349829
968 2 0.156678 0.834169 0.354258
976 2 0.358458 0.837347 0.372629
979 1 0.505766 0.874534 0.359334
987 1 0.688909 0.866473 0.358743
995 1 0.867411 0.865483 0.354712
1000 2 0.919867 0.823258 0.368503
964 1 0.0377075 0.885506 0.358529
963 1 0.129065 0.904783 0.3541
972 1 0.217723 0.899989 0.373037
971 1 0.319739 0.884441 0.35398
982 2 0.456854 0.924379 0.373365
990 2 0.647831 0.921151 0.372349
998 2 0.839155 0.925603 0.369988
966 2 0.0731691 0.950099 0.363897
765 2 0.188748 0.94015 0.345285
809 1 0.253167 0.976073 0.344145
974 2 0.281357 0.938018 0.371503
817 1 0.41377 0.964884 0.351945
825 1 0.597736 0.96016 0.355131
833 1 0.777457 0.953925 0.354088
807 2 0.0658827 0.0335051 0.396127
815 2 0.263437 0.0291785 0.395478
823 2 0.458327 0.0271197 0.39437
831 2 0.656583 0.0321296 0.398396
839 2 0.850658 0.0338982 0.391737
804 1 0.0319604 0.0968699 0.387175
1003 1 0.131346 0.0697972 0.398356
1011 1 0.294649 0.0929152 0.399904
813 2 0.356741 0.123753 0.391362
820 1 0.406713 0.0694803 0.381017
1019 1 0.52112 0.0629702 0.394143
828 1 0.604857 0.0687197 0.380947
1027 1 0.708047 0.0828199 0.399185
1035 1 0.892947 0.097472 0.391142
1041 1 0.0204884 0.181271 0.395828
805 2 0.158064 0.137793 0.400672
1049 1 0.222027 0.170272 0.401011
1057 1 0.407437 0.174708 0.390482
858 1 0.491127 0.141316 0.380767
821 2 0.56016 0.126161 0.386989
1065 1 0.614818 0.178165 0.386377
829 2 0.754528 0.125573 0.379594
1073 1 0.799467 0.185855 0.389246
837 2 0.961625 0.131409 0.390601
847 2 0.0617711 0.240975 0.394082
842 1 0.118062 0.195245 0.390218
855 2 0.249485 0.237271 0.400474
863 2 0.441529 0.238606 0.386433
1064 2 0.54932 0.243099 0.403786
871 2 0.662438 0.238273 0.387689
874 1 0.946166 0.199466 0.380116
844 1 0.0142318 0.279735 0.375044
1043 1 0.0935527 0.307405 0.395366
852 1 0.191256 0.276839 0.392107
1051 1 0.313627 0.269705 0.397608
860 1 0.395009 0.293411 0.388025
1059 1 0.500004 0.288344 0.387718
868 1 0.608885 0.291716 0.377948
1067 1 0.724262 0.278244 0.391254
879 2 0.84561 0.251055 0.390556
1075 1 0.911816 0.29046 0.389785
845 2 0.156287 0.34121 0.39553
890 1 0.270076 0.369248 0.391232