ITEM: TIMESTEP
500
ITEM: NUMBER OF ATOMS
1250
ITEM: BOX BOUNDS pp pp pp
0.0000000000000000e+00 3.9500000000000000e+01
0.0000000000000000e+00 3.9500000000000000e+01
-1.5800000000000001e+01 6.3200000000000003e+01
ITEM: ATOMS id type xs ys zs
1 1 0 0 0
8 2 0.15 0.05 0.025
9 1 0.2 0 0
16 2 0.35 0.05 0.025
17 1 0.4 0 0
24 2 0.55 0.05 0.025
25 1 0.6 0 0
32 2 0.75 0.05 0.025
33 1 0.8 0 0
40 2 0.95 0.05 0.025
3 1 0.1 0.1 0
11 1 0.3 0.1 0
19 1 0.5 0.1 0
27 1 0.7 0.1 0
35 1 0.9 0.1 0
6 2 0.05 0.15 0.025
14 2 0.25 0.15 0.025
22 2 0.45 0.15 0.025
30 2 0.65 0.15 0.025
38 2 0.85 0.15 0.025
41 1 0 0.2 0
48 2 0.15 0.25 0.025
49 1 0.2 0.2 0
56 2 0.35 0.25 0.025
57 1 0.4 0.2 0
64 2 0.55 0.25 0.025
65 1 0.6 0.2 0
72 2 0.75 0.25 0.025
73 1 0.8 0.2 0
80 2 0.95 0.25 0.025
43 1 0.1 0.3 0
51 1 0.3 0.3 0
59 1 0.5 0.3 0
67 1 0.7 0.3 0
75 1 0.9 0.3 0
46 2 0.05 0.35 0.025
54 2 0.25 0.35 0.025
62 2 0.45 0.35 0.025
70 2 0.65 0.35 0.025
78 2 0.85 0.35 0.025
81 1 0 0.4 0
88 2 0.15 0.45 0.025
89 1 0.2 0.4 0
96 2 0.35 0.45 0.025
97 1 0.4 0.4 0
104 2 0.55 0.45 0.025
105 1 0.6 0.4 0
112 2 0.75 0.45 0.025
113 1 0.8 0.4 0
120 2 0.95 0.45 0.025
83 1 0.1 0.5 0
91 1 0.3 0.5 0
99 1 0.5 0.5 0
107 1 0.7 0.5 0
115 1 0.9 0.5 0
86 2 0.05 0.55 0.025
94 2 0.25 0.55 0.025
102 2 0.45 0.55 0.025
110 2 0.65 0.55 0.025
118 2 0.85 0.55 0.025
121 1 0 0.6 0
128 2 0.15 0.65 0.025
129 1 0.2 0.6 0
136 2 0.35 0.65 0.025
137 1 0.4 0.6 0
144 2 0.55 0.65 0.025
145 1 0.6 0.6 0
152 2 0.75 0.65 0.025
153 1 0.8 0.6 0
160 2 0.95 0.65 0.025
123 1 0.1 0.7 0
131 1 0.3 0.7 0
139 1 0.5 0.7 0
147 1 0.7 0.7 0
155 1 0.9 0.7 0
126 2 0.05 0.75 0.025
134 2 0.25 0.75 0.025
142 2 0.45 0.75 0.025
150 2 0.65 0.75 0.025
158 2 0.85 0.75 0.025
161 1 0 0.8 0
168 2 0.15 0.85 0.025
169 1 0.2 0.8 0
176 2 0.35 0.85 0.025
177 1 0.4 0.8 0
184 2 0.55 0.85 0.025
185 1 0.6 0.8 0
192 2 0.75 0.85 0.025
193 1 0.8 0.8 0
200 2 0.95 0.85 0.025
163 1 0.1 0.9 0
171 1 0.3 0.9 0
179 1 0.5 0.9 0
187 1 0.7 0.9 0
195 1 0.9 0.9 0
166 2 0.05 0.95 0.025
174 2 0.25 0.95 0.025
182 2 0.45 0.95 0.025
190 2 0.65 0.95 0.025
198 2 0.85 0.95 0.025
7 2 0.0500083 0.0500676 0.0665932
2 1 0.1 0 0.05
15 2 0.249954 0.0500029 0.0666194
10 1 0.3 0 0.05
23 2 0.450041 0.0500221 0.0666251
18 1 0.5 0 0.05
31 2 0.650033 0.050004 0.0665918
26 1 0.7 0 0.05
39 2 0.850051 0.050015 0.0666016
34 1 0.9 0 0.05
4 1 0 0.1 0.05
12 1 0.2 0.1 0.05
20 1 0.4 0.1 0.05
28 1 0.6 0.1 0.05
36 1 0.8 0.1 0.05
5 2 0.149945 0.150015 0.0665653
13 2 0.349967 0.150029 0.0666263
21 2 0.550018 0.150036 0.0665648
29 2 0.750067 0.149953 0.066573
37 2 0.950027 0.149926 0.0666271
47 2 0.0499387 0.250054 0.0665498
42 1 0.1 0.2 0.05
55 2 0.24998 0.250062 0.0666305
50 1 0.3 0.2 0.05
63 2 0.449985 0.249964 0.0666042
58 1 0.5 0.2 0.05
71 2 0.650069 0.24992 0.0665838
66 1 0.7 0.2 0.05
79 2 0.849944 0.250059 0.0665762
74 1 0.9 0.2 0.05
44 1 0 0.3 0.05
52 1 0.2 0.3 0.05
60 1 0.4 0.3 0.05
68 1 0.6 0.3 0.05
76 1 0.8 0.3 0.05
45 2 0.14992 0.350068 0.0665646
53 2 0.349967 0.349997 0.0665668
61 2 0.550076 0.349996 0.0665892
69 2 0.750018 0.34992 0.0665836
77 2 0.949997 0.350047 0.0666174
87 2 0.0499404 0.449944 0.0665818
82 1 0.1 0.4 0.05
95 2 0.250058 0.450034 0.0666104
90 1 0.3 0.4 0.05
103 2 0.449958 0.449992 0.0665557
98 1 0.5 0.4 0.05
111 2 0.650028 0.449917 0.0665899
106 1 0.7 0.4 0.05
119 2 0.850021 0.449912 0.0665666
114 1 0.9 0.4 0.05
84 1 0 0.5 0.05
92 1 0.2 0.5 0.05
100 1 0.4 0.5 0.05
108 1 0.6 0.5 0.05
116 1 0.8 0.5 0.05
85 2 0.149921 0.549976 0.0665907
93 2 0.349978 0.550053 0.0666007
101 2 0.550025 0.550082 0.0666259
109 2 0.750068 0.549935 0.0666234
117 2 0.950009 0.550078 0.0665703
127 2 0.0500827 0.65006 0.0665583
122 1 0.1 0.6 0.05
135 2 0.249959 0.649981 0.0666075
130 1 0.3 0.6 0.05
143 2 0.45001 0.650064 0.066565
138 1 0.5 0.6 0.05
151 2 0.649937 0.650011 0.0665566
146 1 0.7 0.6 0.05
159 2 0.850019 0.650045 0.0666155
154 1 0.9 0.6 0.05
124 1 0 0.7 0.05
132 1 0.2 0.7 0.05
140 1 0.4 0.7 0.05
148 1 0.6 0.7 0.05
156 1 0.8 0.7 0.05
125 2 0.150086 0.750008 0.0666255
133 2 0.35001 0.749948 0.066574
141 2 0.549948 0.750049 0.0666202
149 2 0.749981 0.750016 0.0665835
157 2 0.950006 0.750056 0.0665875
167 2 0.0499979 0.850083 0.0665628
162 1 0.1 0.8 0.05
175 2 0.250053 0.849989 0.0666167
170 1 0.3 0.8 0.05
183 2 0.450056 0.850075 0.0665788
178 1 0.5 0.8 0.05
191 2 0.650047 0.849919 0.0666216
186 1 0.7 0.8 0.05
199 2 0.850075 0.849998 0.0666165
194 1 0.9 0.8 0.05
164 1 0 0.9 0.05
172 1 0.2 0.9 0.05
180 1 0.4 0.9 0.05
188 1 0.6 0.9 0.05
196 1 0.8 0.9 0.05
165 2 0.149918 0.949968 0.0666264
173 2 0.349995 0.949984 0.066614
181 2 0.54993 0.949976 0.0665827
189 2 0.75006 0.950014 0.0665664
197 2 0.949938 0.949964 0.0665701
208 2 0.149925 0.0500527 0.099693
216 2 0.350008 0.0500697 0.0997055
224 2 0.549929 0.050055 0.0997717
225 1 0.599923 -6.686e-05 0.0831616
232 2 0.750022 0.0500499 0.0997343
240 2 0.950008 0.0500562 0.099704
203 1 0.10007 0.100014 0.0831362
211 1 0.300015 0.10003 0.0831737
219 1 0.50005 0.100083 0.083128
227 1 0.700023 0.100055 0.0831348
235 1 0.90005 0.100004 0.0831338
206 2 0.0500534 0.150022 0.0997094
249 1 0.20008 0.199925 0.0831615
214 2 0.250002 0.150052 0.0997275
257 1 0.400034 0.20001 0.0832021
222 2 0.449967 0.149962 0.0996923
230 2 0.650031 0.149982 0.0997005
273 1 0.799946 0.200061 0.0831377
238 2 0.849927 0.149965 0.0997712
241 1 1 0.200049 0.083172
248 2 0.149947 0.250056 0.0997034
256 2 0.350023 0.24999 0.0997256
264 2 0.549998 0.250002 0.0997278
265 1 0.59997 0.200064 0.0831814
272 2 0.750024 0.249923 0.0997247
280 2 0.950001 0.249932 0.0997005
243 1 0.0999595 0.299918 0.0831972
251 1 0.299948 0.29997 0.0831263
259 1 0.500007 0.299926 0.0831503
267 1 0.700071 0.299978 0.0831745
275 1 0.900041 0.300045 0.0831878
246 2 0.0500746 0.349941 0.0997055
289 1 0.200009 0.399983 0.0831844
254 2 0.249952 0.350032 0.0997012
297 1 0.400045 0.400012 0.0831297
262 2 0.449955 0.350011 0.0997631
270 2 0.650047 0.350066 0.0997379
278 2 0.849975 0.350074 0.0997029
281 1 1 0.399919 0.0831442
288 2 0.150059 0.449953 0.0997586
296 2 0.34999 0.45 0.0997717
304 2 0.55 0.449991 0.0997176
305 1 0.600028 0.39991 0.0832164
312 2 0.750052 0.450005 0.0997129
313 1 0.800031 0.399989 0.0832073
320 2 0.949964 0.450051 0.0997512
283 1 0.100006 0.500069 0.0831304
291 1 0.299912 0.499997 0.0831807
299 1 0.500076 0.500065 0.0832051
307 1 0.700042 0.500056 0.083159
315 1 0.899957 0.499917 0.0831842
286 2 0.0499942 0.549953 0.0996936
321 1 -3.64162e-05 0.600084 0.0831824
294 2 0.24993 0.549986 0.099689
329 1 0.199946 0.599956 0.0831828
302 2 0.450047 0.550063 0.0997549
337 1 0.400059 0.600044 0.0832124
345 1 0.600088 0.599915 0.0831714
310 2 0.649965 0.550014 0.0997041
318 2 0.849969 0.550036 0.099686
353 1 0.799922 0.599976 0.0831544
328 2 0.150018 0.650054 0.0997186
336 2 0.349974 0.650042 0.0997721
344 2 0.549978 0.64993 0.0997137
352 2 0.749947 0.649971 0.0997177
360 2 0.949921 0.650037 0.0997125
323 1 0.100006 0.699998 0.083138
331 1 0.30004 0.699979 0.0831264
339 1 0.49993 0.70009 0.0832063
347 1 0.700073 0.699962 0.0832105
355 1 0.899974 0.700003 0.0831868
326 2 0.0499259 0.749965 0.0996947
369 1 0.200091 0.800083 0.0831623
334 2 0.25005 0.750054 0.099745
342 2 0.450051 0.750029 0.0997731
377 1 0.39994 0.800051 0.0831728
350 2 0.650078 0.749995 0.0997639
358 2 0.850075 0.750023 0.0996966
361 1 1.00004 0.800017 0.083174
368 2 0.150017 0.849977 0.0996999
376 2 0.349939 0.850038 0.0997547
384 2 0.550087 0.850084 0.099707
385 1 0.599967 0.800042 0.0832057
392 2 0.75002 0.850065 0.0997682
393 1 0.799942 0.799988 0.0831895
400 2 0.950059 0.849951 0.0997644
363 1 0.0999661 0.899916 0.0831442
371 1 0.300009 0.899996 0.0832166
379 1 0.499994 0.899918 0.0831898
387 1 0.700061 0.900007 0.0831502
395 1 0.89994 0.899943 0.0831678
366 2 0.0500046 0.95007 0.0997145
209 1 0.200004 0.99994 0.0831628
374 2 0.249929 0.949932 0.099721
217 1 0.399933 1.00008 0.0831869
382 2 0.450015 0.950078 0.0996907
390 2 0.64992 0.949983 0.099713
233 1 0.800068 0.999968 0.083127
398 2 0.850056 0.950042 0.0997193
201 1 1.00003 1.00004 0.0831937
207 2 0.0500266 0.0499909 0.132815
215 2 0.250031 0.0499456 0.132817
223 2 0.450076 0.0499236 0.132824
218 1 0.499955 9.72388e-06 0.116276
231 2 0.649977 0.0500292 0.132855
226 1 0.699985 -6.23659e-05 0.116258
239 2 0.850005 0.0499386 0.1328
234 1 0.900079 -8.4477e-05 0.116259
212 1 0.199975 0.10005 0.116328
220 1 0.399976 0.0999155 0.116248
228 1 0.599955 0.100027 0.116289
236 1 0.799966 0.0999732 0.116267
204 1 0.999935 0.100001 0.116283
242 1 0.100085 0.199973 0.116292
205 2 0.150057 0.150019 0.132849
250 1 0.300033 0.199979 0.116329
213 2 0.35004 0.149976 0.132873
221 2 0.549915 0.15003 0.132867
229 2 0.750002 0.149951 0.13282
274 1 0.89991 0.199964 0.116302
237 2 0.949943 0.149927 0.132859
247 2 0.0500687 0.250022 0.132858
255 2 0.249983 0.249945 0.132865
263 2 0.449954 0.249991 0.132824
258 1 0.499939 0.200002 0.11629
271 2 0.650077 0.249937 0.132852
266 1 0.700019 0.200015 0.116242
279 2 0.849932 0.250013 0.132813
252 1 0.200006 0.300078 0.116268
260 1 0.400084 0.299919 0.116326
268 1 0.599985 0.300066 0.116296
276 1 0.800015 0.300049 0.116305
244 1 0.999994 0.299959 0.116253
282 1 0.100044 0.39993 0.116318
245 2 0.149955 0.350067 0.132812
290 1 0.299953 0.399911 0.116305
253 2 0.350071 0.349945 0.132876
261 2 0.550007 0.349963 0.132826
269 2 0.750029 0.350015 0.132804
277 2 0.950016 0.349999 0.132833
287 2 0.0500068 0.449998 0.132847
295 2 0.249924 0.450081 0.13288
303 2 0.450041 0.450012 0.132834
298 1 0.500018 0.399958 0.116319
311 2 0.649945 0.449994 0.132821
306 1 0.700013 0.399919 0.116275
319 2 0.849968 0.450006 0.132864
314 1 0.899954 0.399974 0.11629
284 1 -1.18094e-05 0.499966 0.116277
292 1 0.200068 0.499912 0.116266
300 1 0.400038 0.500085 0.116279
308 1 0.600027 0.499966 0.116277
316 1 0.799983 0.500047 0.116261
322 1 0.100057 0.600024 0.116327
285 2 0.149929 0.549986 0.132884
330 1 0.300032 0.600083 0.116283
293 2 0.350085 0.550075 0.132826
301 2 0.549991 0.55 0.132866
309 2 0.749983 0.549946 0.132885
354 1 0.899921 0.599906 0.116327
317 2 0.950084 0.549935 0.132863
327 2 0.0499876 0.650001 0.132803
335 2 0.250047 0.649929 0.132883
343 2 0.450044 0.649951 0.132801
338 1 0.500053 0.599958 0.116248
351 2 0.649923 0.650044 0.132863
346 1 0.700029 0.600078 0.116261
359 2 0.850039 0.649943 0.132841
324 1 8.98782e-05 0.699946 0.116279
332 1 0.200049 0.700019 0.116299
340 1 0.399939 0.699922 0.116301
348 1 0.600002 0.699932 0.116295
356 1 0.800064 0.700035 0.11633
362 1 0.100032 0.800046 0.116295
325 2 0.150029 0.750041 0.132815
370 1 0.299975 0.799977 0.116302
333 2 0.35003 0.749916 0.132838
378 1 0.50003 0.800021 0.116328
341 2 0.549998 0.749939 0.13286
349 2 0.750044 0.750034 0.132882
357 2 0.950044 0.749938 0.132805
367 2 0.0500536 0.849926 0.132822
375 2 0.249939 0.849945 0.132813
383 2 0.449962 0.849996 0.132839
391 2 0.650084 0.850021 0.13287
386 1 0.700089 0.799984 0.116321
399 2 0.850077 0.84993 0.132889
394 1 0.89995 0.799925 0.116296
364 1 5.29405e-05 0.899992 0.116271
372 1 0.199922 0.899999 0.116325
380 1 0.400088 0.899989 0.116296
388 1 0.60009 0.900006 0.116284
396 1 0.800032 0.899936 0.116326
202 1 0.100017 1.00002 0.116315
365 2 0.150018 0.949981 0.132825
210 1 0.299929 1.00006 0.116298
373 2 0.349942 0.950036 0.132844
381 2 0.549976 0.949954 0.132818
389 2 0.749926 0.950047 0.132873
397 2 0.949927 0.949922 0.132856
408 2 0.150006 0.0500478 0.165993
416 2 0.349935 0.0500189 0.165981
424 2 0.550065 0.0499259 0.165959
425 1 0.599945 4.04935e-05 0.149375
432 2 0.750029 0.0500661 0.165949
433 1 0.799922 4.78201e-05 0.149377
440 2 0.949939 0.0499209 0.165996
403 1 0.100006 0.10003 0.149444
411 1 0.299911 0.0999611 0.14944
419 1 0.500033 0.0999915 0.149415
427 1 0.699914 0.100062 0.14938
435 1 0.899948 0.0999488 0.149401
406 2 0.0499938 0.149951 0.165956
449 1 0.199991 0.199989 0.149438
414 2 0.249966 0.150074 0.165971
457 1 0.399985 0.200086 0.149448
422 2 0.449933 0.149961 0.165946
430 2 0.649947 0.150083 0.165936
438 2 0.850075 0.15001 0.165994
441 1 0.999933 0.199916 0.149386
448 2 0.150023 0.24997 0.165917
456 2 0.349988 0.249981 0.165998
464 2 0.549999 0.249997 0.165971
465 1 0.599911 0.200075 0.149442
472 2 0.750045 0.250005 0.165932
473 1 0.799988 0.200043 0.149373
480 2 0.95008 0.250075 0.165944
443 1 0.0999534 0.300035 0.149417
451 1 0.300009 0.299915 0.14941
459 1 0.499993 0.300004 0.149367
467 1 0.699987 0.299921 0.149423
475 1 0.899987 0.29993 0.149417
446 2 0.050049 0.349924 0.165932
489 1 0.199914 0.399945 0.149438
454 2 0.249951 0.349982 0.165928
462 2 0.449983 0.35006 0.165973
470 2 0.650056 0.349924 0.165968
478 2 0.849985 0.350059 0.165928
481 1 1.00008 0.399988 0.149379
488 2 0.149977 0.450048 0.165987
496 2 0.349958 0.449983 0.165966
497 1 0.399978 0.400073 0.149444
504 2 0.54993 0.449912 0.165993
505 1 0.600005 0.400012 0.149413
512 2 0.749999 0.449976 0.165985
513 1 0.800011 0.399977 0.149369
520 2 0.950036 0.450018 0.165922
483 1 0.0999406 0.500073 0.149436
491 1 0.300013 0.499996 0.149399
499 1 0.500089 0.499947 0.149423
507 1 0.699932 0.500047 0.149362
515 1 0.899941 0.499935 0.149418
486 2 0.0500172 0.550008 0.165955
521 1 7.68104e-05 0.599929 0.149392
494 2 0.249925 0.550065 0.16596
529 1 0.200007 0.59997 0.149445
502 2 0.449946 0.550066 0.165968
537 1 0.399934 0.599988 0.149378
510 2 0.649933 0.549933 0.165996
518 2 0.849957 0.550025 0.165998
553 1 0.799973 0.600032 0.149401
528 2 0.149995 0.64995 0.165952
536 2 0.350037 0.649985 0.165927
544 2 0.55008 0.650071 0.165944
545 1 0.600024 0.599953 0.149357
552 2 0.750063 0.650041 0.165923
560 2 0.950065 0.649916 0.165966
523 1 0.100088 0.700069 0.149387
531 1 0.299933 0.69991 0.149433
539 1 0.500076 0.700082 0.149427
547 1 0.69998 0.700073 0.149384
555 1 0.900055 0.700054 0.149375
526 2 0.0499675 0.750013 0.16596
561 1 8.52215e-05 0.800011 0.149365
534 2 0.249936 0.749967 0.165987
569 1 0.199973 0.799954 0.149434
542 2 0.44993 0.750061 0.166
550 2 0.650076 0.749918 0.165953
558 2 0.850027 0.74996 0.165929
568 2 0.150017 0.85007 0.165969
576 2 0.349987 0.850003 0.165989
577 1 0.400054 0.800012 0.149399
584 2 0.550053 0.849964 0.165947
585 1 0.600023 0.80008 0.149439
592 2 0.750044 0.849988 0.165927
593 1 0.800092 0.800064 0.149431
600 2 0.949993 0.850055 0.165929
563 1 0.100086 0.899929 0.149406
571 1 0.29992 0.899968 0.149389
579 1 0.500013 0.899953 0.149371
587 1 0.70001 0.900012 0.149444
595 1 0.900073 0.900083 0.149443
566 2 0.0499931 0.94996 0.165974
409 1 0.199957 1.00001 0.149433
574 2 0.250084 0.949948 0.165936
417 1 0.399954 0.999947 0.149436
582 2 0.450016 0.949924 0.165929
590 2 0.649998 0.949918 0.165958
598 2 0.849978 0.950034 0.165939
401 1 0.99995 0.999982 0.149425
407 2 0.0499767 0.0500488 0.199089
415 2 0.249926 0.0499772 0.199098
423 2 0.450029 0.050051 0.199109
418 1 0.500073 -7.3257e-05 0.182523
431 2 0.649977 0.0499844 0.199114
426 1 0.699927 5.38797e-06 0.182482
439 2 0.850048 0.0499705 0.199087
412 1 0.200049 0.100036 0.182553
420 1 0.400059 0.100071 0.182519
428 1 0.600023 0.100088 0.182486
436 1 0.799968 0.100002 0.182536
404 1 0.999921 0.100036 0.182486
442 1 0.0999313 0.200076 0.182554
405 2 0.149997 0.149976 0.199057
450 1 0.300033 0.200044 0.182518
413 2 0.350036 0.150023 0.199064
421 2 0.549935 0.150016 0.199051
429 2 0.750075 0.149958 0.19908
437 2 0.950005 0.150005 0.199117
447 2 0.0500138 0.249956 0.199084
455 2 0.250078 0.249972 0.199049
463 2 0.449964 0.249919 0.199096
458 1 0.499953 0.200027 0.182527
471 2 0.649924 0.249934 0.199056
466 1 0.699996 0.199913 0.182511
479 2 0.850014 0.250045 0.199049
474 1 0.899997 0.199955 0.18256
452 1 0.200027 0.30006 0.182558
460 1 0.400092 0.299966 0.182488
468 1 0.599923 0.300019 0.182538
476 1 0.800004 0.299929 0.182532
444 1 0.999975 0.300043 0.182498
482 1 0.100049 0.399967 0.18248
445 2 0.149988 0.350058 0.199046
490 1 0.30002 0.400052 0.182502
453 2 0.349993 0.350045 0.199091
461 2 0.549983 0.350046 0.199042
469 2 0.75 0.350072 0.199059
514 1 0.899959 0.400039 0.182515
477 2 0.949984 0.349929 0.199084
487 2 0.0499634 0.449969 0.199117
495 2 0.249916 0.449957 0.199032
503 2 0.450054 0.450034 0.199033
498 1 0.49997 0.40007 0.182555
511 2 0.650059 0.450084 0.199097
506 1 0.69992 0.39994 0.182512
519 2 0.850061 0.44999 0.199108
484 1 1.02288e-05 0.499953 0.182537
492 1 0.199971 0.499931 0.182479
500 1 0.399971 0.499987 0.182515
508 1 0.599993 0.499908 0.182475
516 1 0.800092 0.499925 0.182488
522 1 0.100037 0.600013 0.182554
485 2 0.149959 0.550045 0.199104
493 2 0.350028 0.550033 0.199089
501 2 0.55002 0.549934 0.199103
509 2 0.750043 0.549961 0.199055
554 1 0.900045 0.600071 0.182525
517 2 0.949968 0.550059 0.199105
527 2 0.0500516 0.649936 0.199108
535 2 0.249926 0.650033 0.199108
530 1 0.299978 0.599982 0.182516
543 2 0.450087 0.650026 0.199078
538 1 0.499954 0.599935 0.182537
551 2 0.650078 0.649969 0.19908
546 1 0.700056 0.600005 0.1825
559 2 0.849974 0.649996 0.199041
524 1 1.88527e-05 0.700013 0.182528
532 1 0.199923 0.699921 0.182511
540 1 0.399989 0.7 0.182522
548 1 0.599975 0.69995 0.182529
556 1 0.799911 0.700079 0.182531
562 1 0.100017 0.799958 0.182539
525 2 0.149945 0.749987 0.199117
533 2 0.350024 0.750086 0.199036
541 2 0.549961 0.75001 0.199103
549 2 0.749971 0.749969 0.19908
594 1 0.900041 0.79994 0.1825
557 2 0.949919 0.75008 0.199079
567 2 0.0500221 0.850063 0.19909
575 2 0.249984 0.849963 0.199051
570 1 0.299959 0.799932 0.18252
583 2 0.450088 0.849948 0.199032
578 1 0.500033 0.799964 0.182478
591 2 0.649988 0.849978 0.199074
586 1 0.700034 0.800001 0.182508
599 2 0.849957 0.850051 0.19906
572 1 0.199974 0.899922 0.182519
580 1 0.400093 0.900036 0.182489
588 1 0.600024 0.900032 0.182521
596 1 0.800088 0.899969 0.182476
564 1 1.00004 0.899986 0.182512
402 1 0.0999435 0.999929 0.18249
565 2 0.150067 0.950004 0.199102
410 1 0.300042 1.00007 0.182529
573 2 0.350037 0.95002 0.199092
581 2 0.55 0.949963 0.199113
589 2 0.749952 0.949938 0.199055
434 1 0.899921 0.999928 0.182491
597 2 0.950069 0.950083 0.199086
608 2 0.149942 0.0500807 0.232223
616 2 0.350007 0.0500047 0.232146
624 2 0.549945 0.0499362 0.232219
625 1 0.599997 5.40339e-05 0.215612
632 2 0.750011 0.0499736 0.232181
633 1 0.799953 -7.20316e-05 0.215652
640 2 0.950054 0.0499534 0.232225
603 1 0.100074 0.100064 0.215635
611 1 0.299915 0.100006 0.215671
619 1 0.499911 0.099913 0.215592
627 1 0.699919 0.0999144 0.215656
635 1 0.900076 0.100051 0.215654
606 2 0.0499595 0.149941 0.232214
649 1 0.200018 0.200039 0.215606
614 2 0.250074 0.150055 0.232163
657 1 0.40009 0.200063 0.2156
622 2 0.450051 0.150038 0.232226
630 2 0.649916 0.149973 0.232148
638 2 0.849987 0.149956 0.232204
648 2 0.14993 0.249957 0.232233
656 2 0.350029 0.24995 0.232204
664 2 0.549929 0.250016 0.23223
665 1 0.599975 0.200079 0.215598
672 2 0.749988 0.249937 0.232209
673 1 0.800086 0.200057 0.215662
641 1 0.999968 0.200006 0.215667
680 2 0.950058 0.250047 0.232195
643 1 0.100092 0.299999 0.215608
651 1 0.299962 0.299992 0.215628
659 1 0.499991 0.299963 0.215598
667 1 0.700036 0.299994 0.215644
675 1 0.90001 0.299915 0.215655
646 2 0.0499904 0.349989 0.23222
689 1 0.200008 0.39992 0.215588
654 2 0.249937 0.349949 0.232146
662 2 0.449945 0.349966 0.232226
670 2 0.650023 0.349929 0.232174
678 2 0.850017 0.349995 0.232166
681 1 1.00004 0.400029 0.215674
688 2 0.149934 0.450009 0.232217
696 2 0.350071 0.449994 0.232159
697 1 0.400004 0.400015 0.215605
704 2 0.550039 0.449925 0.232181
705 1 0.600064 0.399972 0.215668
712 2 0.749933 0.449961 0.23217
713 1 0.800034 0.400088 0.215619
720 2 0.949988 0.449972 0.232157
683 1 0.100009 0.499925 0.215655
691 1 0.299959 0.499984 0.215624
699 1 0.499965 0.499977 0.215657
707 1 0.700036 0.49999 0.215631
715 1 0.900056 0.500001 0.215622
686 2 0.0499254 0.549952 0.232223
721 1 7.59306e-05 0.599997 0.215605
694 2 0.250058 0.549995 0.23218
729 1 0.199945 0.600051 0.215614
702 2 0.450053 0.550048 0.232158
710 2 0.650012 0.549994 0.232185
718 2 0.850011 0.549972 0.23217
728 2 0.14997 0.649983 0.232207
736 2 0.350041 0.65005 0.232159
737 1 0.400002 0.599983 0.215589
744 2 0.549942 0.650021 0.23217
745 1 0.600004 0.600077 0.215646
752 2 0.749987 0.650047 0.232188
753 1 0.800059 0.600042 0.215639
760 2 0.950017 0.650048 0.232171
723 1 0.0999772 0.699997 0.215651
731 1 0.300085 0.69998 0.21561
739 1 0.500012 0.700088 0.215647
747 1 0.699938 0.700035 0.215588
755 1 0.900005 0.699911 0.215644
726 2 0.0499724 0.750056 0.23217
761 1 6.3618e-05 0.800077 0.215675
734 2 0.249933 0.749962 0.232228
769 1 0.199977 0.799941 0.215627
742 2 0.449959 0.749937 0.232206
750 2 0.649924 0.749959 0.232203
758 2 0.84998 0.749989 0.23218
768 2 0.150022 0.850049 0.232162
776 2 0.350032 0.850032 0.232209
777 1 0.400057 0.800066 0.215625
784 2 0.550058 0.85004 0.232231
785 1 0.599988 0.800025 0.215632
792 2 0.750014 0.849964 0.232201
793 1 0.800019 0.799999 0.215614
800 2 0.949933 0.850055 0.232191
763 1 0.100052 0.900064 0.215664
771 1 0.300036 0.900078 0.215606
779 1 0.500086 0.899986 0.215611
787 1 0.700002 0.899922 0.215652
795 1 0.899919 0.899919 0.215603
766 2 0.0500618 0.950004 0.232226
609 1 0.199934 0.999992 0.215665
774 2 0.249961 0.949984 0.232231
617 1 0.399992 0.999909 0.215592
782 2 0.450082 0.950004 0.232192
790 2 0.649915 0.94994 0.232203
798 2 0.850013 0.94995 0.232202
601 1 0.999972 1.00006 0.215653
607 2 0.0500515 0.0499599 0.265297
615 2 0.249996 0.0499834 0.265323
623 2 0.449954 0.0499671 0.265298
618 1 0.500083 5.29853e-05 0.248718
631 2 0.650034 0.0500827 0.26533
626 1 0.700008 -2.51941e-05 0.248747
639 2 0.849968 0.0500864 0.265341
634 1 0.899941 7.4967e-05 0.248784
612 1 0.200003 0.0999324 0.248773
620 1 0.399965 0.100025 0.248744
628 1 0.600038 0.0999167 0.248779
636 1 0.800051 0.0999705 0.248729
604 1 0.999977 0.0999949 0.248703
642 1 0.0999545 0.199977 0.248755
605 2 0.149918 0.149944 0.265273
613 2 0.349956 0.150004 0.265304
621 2 0.549921 0.150016 0.265294
629 2 0.749977 0.149945 0.265327
674 1 0.900084 0.200004 0.248711
637 2 0.949928 0.150063 0.265308
647 2 0.049983 0.249962 0.265275
655 2 0.249996 0.250006 0.265302
650 1 0.299921 0.199999 0.248776
663 2 0.45005 0.249922 0.265268
658 1 0.49998 0.200039 0.248715
671 2 0.650008 0.250013 0.265339
666 1 0.700033 0.200045 0.248757
679 2 0.85001 0.249969 0.265274
652 1 0.20006 0.300027 0.248706
660 1 0.399947 0.300033 0.248729
668 1 0.599912 0.300062 0.248726
676 1 0.799917 0.300064 0.248732
644 1 1.00007 0.299997 0.248725
682 1 0.100012 0.400049 0.248792
645 2 0.150021 0.349966 0.265289
653 2 0.34995 0.350047 0.265312
661 2 0.550049 0.350084 0.265269
669 2 0.749968 0.34993 0.265335
714 1 0.899978 0.399978 0.248733
677 2 0.95001 0.350043 0.265288
687 2 0.0499692 0.450066 0.265276
695 2 0.250075 0.449976 0.265311
690 1 0.300031 0.400064 0.248759
703 2 0.450049 0.450032 0.265344
698 1 0.49998 0.399968 0.248775
711 2 0.649955 0.450074 0.265312
706 1 0.699968 0.399998 0.248747
719 2 0.850047 0.450047 0.265348
684 1 -7.93625e-05 0.500006 0.248756
692 1 0.200028 0.500022 0.248776
700 1 0.400027 0.50007 0.248726
708 1 0.600061 0.500031 0.248787
716 1 0.800054 0.499953 0.248762
722 1 0.0999162 0.600006 0.248767
685 2 0.150072 0.549955 0.265268
693 2 0.350035 0.549935 0.265275
701 2 0.549976 0.550009 0.265341
709 2 0.749965 0.549964 0.265311
754 1 0.899999 0.599919 0.248773
717 2 0.950009 0.550017 0.265324
727 2 0.0499436 0.650084 0.265289
735 2 0.249993 0.650009 0.265274
730 1 0.299976 0.599931 0.248748
743 2 0.450062 0.650066 0.265308
738 1 0.499937 0.600053 0.248705
751 2 0.649936 0.649998 0.265348
746 1 0.700045 0.60008 0.248769
759 2 0.849982 0.649995 0.265278
724 1 -6.85677e-05 0.700011 0.248736
732 1 0.200029 0.70001 0.248764
740 1 0.400056 0.70002 0.248737
748 1 0.600046 0.700026 0.24877
756 1 0.799946 0.700037 0.248723
762 1 0.100057 0.799952 0.248789
725 2 0.15001 0.749987 0.265316
733 2 0.350044 0.749959 0.265342
741 2 0.55002 0.750026 0.265344
749 2 0.749928 0.749981 0.265325
794 1 0.89991 0.799999 0.248748
757 2 0.949934 0.750011 0.265315
767 2 0.0499785 0.849923 0.265282
775 2 0.249953 0.850081 0.265284
770 1 0.300016 0.800004 0.248718
783 2 0.450048 0.849935 0.265293
778 1 0.500065 0.799911 0.248712
791 2 0.650032 0.850048 0.26532
786 1 0.699952 0.799947 0.248727
799 2 0.849931 0.850059 0.26529
764 1 -2.38555e-05 0.899986 0.24877
772 1 0.199911 0.900044 0.248759
780 1 0.399969 0.89994 0.248788
788 1 0.599931 0.900089 0.248785
796 1 0.800032 0.90008 0.248706
602 1 0.0999414 0.999969 0.248708
765 2 0.150048 0.949938 0.2653
610 1 0.300007 1.00002 0.248722
773 2 0.349921 0.949937 0.265284
781 2 0.550069 0.950021 0.265285
789 2 0.749976 0.949943 0.265283
797 2 0.950057 0.950061 0.265335
808 2 0.149985 0.0499728 0.298429
816 2 0.349963 0.0500112 0.298389
817 1 0.399942 -6.04756e-07 0.281879
824 2 0.549979 0.0499438 0.298398
825 1 0.599992 -4.03449e-05 0.281884
832 2 0.749924 0.0499429 0.298409
833 1 0.800043 6.04715e-05 0.281836
840 2 0.950014 0.0500029 0.298388
803 1 0.100027 0.100051 0.281855
811 1 0.300076 0.0999184 0.281818
819 1 0.499937 0.0999671 0.281853
827 1 0.700052 0.100039 0.281838
835 1 0.899985 0.0999891 0.281845
806 2 0.0499787 0.149999 0.298432
849 1 0.199921 0.19994 0.281905
814 2 0.249938 0.149927 0.298383
822 2 0.449934 0.14992 0.298444
830 2 0.649936 0.149973 0.2984
873 1 0.800035 0.199981 0.281829
838 2 0.849919 0.150013 0.298382
841 1 0.999998 0.199996 0.281892
848 2 0.150008 0.250073 0.298439
856 2 0.349941 0.250031 0.298426
857 1 0.399992 0.200039 0.28184
864 2 0.549962 0.249949 0.298383
865 1 0.599989 0.20003 0.281848
872 2 0.749994 0.249954 0.298381
880 2 0.950084 0.25001 0.298423
843 1 0.0999594 0.300082 0.281847
851 1 0.300037 0.299959 0.281906
859 1 0.500077 0.299912 0.281894
867 1 0.699919 0.299955 0.281864
875 1 0.899967 0.300067 0.281897
846 2 0.0500708 0.350084 0.298378
881 1 7.87278e-05 0.400002 0.281843
854 2 0.250006 0.350057 0.298413
862 2 0.449928 0.349924 0.298454
905 1 0.600054 0.400079 0.281832
870 2 0.649997 0.34992 0.298416
878 2 0.849995 0.350032 0.298438
888 2 0.150031 0.450077 0.298434
889 1 0.199941 0.400068 0.281825
896 2 0.349958 0.449975 0.298445
897 1 0.399932 0.399954 0.28182
904 2 0.549946 0.450059 0.298422
912 2 0.750067 0.449977 0.298447
913 1 0.800069 0.399946 0.281858
920 2 0.949985 0.450073 0.298416
883 1 0.0999624 0.49991 0.281898
891 1 0.299949 0.500066 0.281891
899 1 0.500075 0.499976 0.281898
907 1 0.700007 0.499962 0.28189
915 1 0.899925 0.499983 0.28183
886 2 0.04998 0.55004 0.298391
921 1 4.28067e-05 0.600008 0.281907
894 2 0.250051 0.549985 0.29838
929 1 0.200074 0.599987 0.281852
937 1 0.400006 0.599914 0.281871
902 2 0.45008 0.549953 0.298437
910 2 0.649998 0.550062 0.298377
918 2 0.850025 0.549985 0.298434
928 2 0.149992 0.650042 0.298382
936 2 0.349998 0.649919 0.298396
944 2 0.550013 0.650051 0.298451
945 1 0.599964 0.599966 0.281909
952 2 0.749961 0.650018 0.298395
953 1 0.80005 0.599938 0.281843
960 2 0.949998 0.649932 0.298392
923 1 0.0999172 0.700029 0.281823
931 1 0.299994 0.700049 0.281898
939 1 0.49995 0.700024 0.281832
947 1 0.700029 0.699942 0.281904
955 1 0.899957 0.699952 0.281883
926 2 0.0500348 0.750034 0.298395
961 1 -1.32042e-06 0.799975 0.281882
969 1 0.199957 0.800081 0.281879
934 2 0.250059 0.75003 0.298426
942 2 0.450073 0.75007 0.298386
950 2 0.649935 0.750065 0.298403
958 2 0.84992 0.750034 0.298441
968 2 0.150035 0.850071 0.298404
976 2 0.349994 0.850031 0.298459
977 1 0.39995 0.800003 0.281898
984 2 0.549957 0.850068 0.298431
985 1 0.600034 0.799958 0.281853
992 2 0.749985 0.850029 0.298432
993 1 0.799954 0.799946 0.281876
1000 2 0.949973 0.850066 0.298433
963 1 0.0999254 0.899944 0.281902
971 1 0.300042 0.899969 0.28189
979 1 0.500062 0.899934 0.281861
987 1 0.699978 0.899945 0.281859
995 1 0.899969 0.899939 0.281825
966 2 0.0500487 0.950033 0.298421
809 1 0.199914 0.999925 0.28182
974 2 0.250032 0.950041 0.298426
982 2 0.450012 0.95006 0.298457
990 2 0.65005 0.950083 0.29838
998 2 0.850052 0.949977 0.298454
801 1 0.999914 0.999997 0.281826
807 2 0.0499947 0.0499174 0.331534
802 1 0.10003 7.38304e-05 0.315008
815 2 0.250024 0.0499244 0.331547
823 2 0.449938 0.0499855 0.331539
818 1 0.500017 4.83591e-05 0.315013
831 2 0.649956 0.0500625 0.331568
826 1 0.700022 1.57165e-05 0.314963
839 2 0.849991 0.0500238 0.331511
804 1 3.89963e-05 0.099923 0.314988
812 1 0.199928 0.100039 0.314973
820 1 0.400042 0.099963 0.314999
828 1 0.600043 0.100001 0.31499
836 1 0.799908 0.100006 0.314931
805 2 0.150031 0.149946 0.331549
813 2 0.349973 0.15003 0.331544
821 2 0.549971 0.14996 0.331493
829 2 0.749925 0.149965 0.331551
874 1 0.900077 0.199927 0.314965
837 2 0.949986 0.150065 0.331555
847 2 0.049931 0.249992 0.331568
842 1 0.100064 0.200042 0.314971
855 2 0.250066 0.249986 0.331572
850 1 0.299931 0.199988 0.314947
863 2 0.450023 0.250054 0.331551
858 1 0.500072 0.200081 0.315013
871 2 0.650065 0.249961 0.331548
866 1 0.699934 0.200073 0.314954
879 2 0.849959 0.25003 0.331509
852 1 0.200008 0.300002 0.314969
860 1 0.399945 0.299953 0.315
868 1 0.599962 0.30004 0.314997
876 1 0.800077 0.299968 0.31496
844 1 0.99995 0.299931 0.314975
845 2 0.149999 0.349927 0.331546
853 2 0.350005 0.349971 0.331515
898 1 0.500016 0.399955 0.315004
861 2 0.550088 0.350083 0.33153
906 1 0.699916 0.400018 0.314957
869 2 0.749971 0.350012 0.331512
914 1 0.899925 0.399934 0.314989
877 2 0.949946 0.349978 0.331535
887 2 0.0499167 0.449959 0.331578
882 1 0.0999959 0.400026 0.31502
895 2 0.250037 0.44996 0.331533
890 1 0.30001 0.400006 0.314996
903 2 0.449943 0.450083 0.331547
911 2 0.650043 0.450061 0.331577
919 2 0.85007 0.44994 0.331495
884 1 2.34684e-05 0.499913 0.315
892 1 0.200015 0.500063 0.314965
900 1 0.399922 0.500087 0.315017
908 1 0.600048 0.499925 0.314957
916 1 0.800077 0.499987 0.314977
885 2 0.150067 0.549949 0.331494
893 2 0.350041 0.549953 0.331575
938 1 0.499926 0.599913 0.314995
901 2 0.549925 0.550065 0.331545
909 2 0.749935 0.549924 0.331523
917 2 0.950033 0.550058 0.331544
927 2 0.0499747 0.650023 0.331565
922 1 0.0999437 0.60008 0.314983
935 2 0.250008 0.650021 0.331508
930 1 0.300012 0.599922 0.314994
943 2 0.450019 0.650032 0.331551
951 2 0.650022 0.650046 0.33154
946 1 0.700003 0.600021 0.315012