ITEM: TIMESTEP
400
ITEM: NUMBER OF ATOMS
1250
ITEM: BOX BOUNDS pp pp pp
0.0000000000000000e+00 3.0000000000000000e+01
0.0000000000000000e+00 3.0000000000000000e+01
-1.2000000000000000e+01 4.8000000000000000e+01
ITEM: ATOMS id type xs ys zs
1 1 0 0 0
8 2 0.15 0.05 0.025
9 1 0.2 0 0
16 2 0.35 0.05 0.025
17 1 0.4 0 0
24 2 0.55 0.05 0.025
25 1 0.6 0 0
32 2 0.75 0.05 0.025
33 1 0.8 0 0
40 2 0.95 0.05 0.025
6 2 0.05 0.15 0.025
3 1 0.1 0.1 0
14 2 0.25 0.15 0.025
11 1 0.3 0.1 0
22 2 0.45 0.15 0.025
19 1 0.5 0.1 0
27 1 0.7 0.1 0
30 2 0.65 0.15 0.025
35 1 0.9 0.1 0
38 2 0.85 0.15 0.025
41 1 0 0.2 0
48 2 0.15 0.25 0.025
49 1 0.2 0.2 0
56 2 0.35 0.25 0.025
57 1 0.4 0.2 0
64 2 0.55 0.25 0.025
65 1 0.6 0.2 0
72 2 0.75 0.25 0.025
73 1 0.8 0.2 0
80 2 0.95 0.25 0.025
46 2 0.05 0.35 0.025
43 1 0.1 0.3 0
54 2 0.25 0.35 0.025
51 1 0.3 0.3 0
62 2 0.45 0.35 0.025
59 1 0.5 0.3 0
67 1 0.7 0.3 0
70 2 0.65 0.35 0.025
75 1 0.9 0.3 0
78 2 0.85 0.35 0.025
81 1 0 0.4 0
88 2 0.15 0.45 0.025
89 1 0.2 0.4 0
96 2 0.35 0.45 0.025
97 1 0.4 0.4 0
104 2 0.55 0.45 0.025
105 1 0.6 0.4 0
112 2 0.75 0.45 0.025
113 1 0.8 0.4 0
120 2 0.95 0.45 0.025
83 1 0.1 0.5 0
91 1 0.3 0.5 0
99 1 0.5 0.5 0
107 1 0.7 0.5 0
115 1 0.9 0.5 0
86 2 0.05 0.55 0.025
121 1 0 0.6 0
94 2 0.25 0.55 0.025
129 1 0.2 0.6 0
102 2 0.45 0.55 0.025
137 1 0.4 0.6 0
145 1 0.6 0.6 0
110 2 0.65 0.55 0.025
153 1 0.8 0.6 0
118 2 0.85 0.55 0.025
123 1 0.1 0.7 0
128 2 0.15 0.65 0.025
131 1 0.3 0.7 0
136 2 0.35 0.65 0.025
139 1 0.5 0.7 0
144 2 0.55 0.65 0.025
147 1 0.7 0.7 0
152 2 0.75 0.65 0.025
155 1 0.9 0.7 0
160 2 0.95 0.65 0.025
126 2 0.05 0.75 0.025
161 1 0 0.8 0
134 2 0.25 0.75 0.025
169 1 0.2 0.8 0
142 2 0.45 0.75 0.025
177 1 0.4 0.8 0
185 1 0.6 0.8 0
150 2 0.65 0.75 0.025
193 1 0.8 0.8 0
158 2 0.85 0.75 0.025
163 1 0.1 0.9 0
168 2 0.15 0.85 0.025
171 1 0.3 0.9 0
176 2 0.35 0.85 0.025
179 1 0.5 0.9 0
184 2 0.55 0.85 0.025
187 1 0.7 0.9 0
192 2 0.75 0.85 0.025
195 1 0.9 0.9 0
200 2 0.95 0.85 0.025
166 2 0.05 0.95 0.025
174 2 0.25 0.95 0.025
182 2 0.45 0.95 0.025
190 2 0.65 0.95 0.025
198 2 0.85 0.95 0.025
7 2 0.0501052 0.050441 0.0829636
2 1 0.1 0 0.05
15 2 0.249662 0.0499895 0.0832278
10 1 0.3 0 0.05
23 2 0.450306 0.0502401 0.0832181
18 1 0.5 0 0.05
26 1 0.7 0 0.05
31 2 0.64998 0.0498062 0.0830816
34 1 0.9 0 0.05
39 2 0.850545 0.050259 0.0829169
4 1 0 0.1 0.05
5 2 0.149908 0.150368 0.082696
12 1 0.2 0.1 0.05
13 2 0.349955 0.150372 0.0832524
20 1 0.4 0.1 0.05
21 2 0.550569 0.15069 0.0827069
28 1 0.6 0.1 0.05
29 2 0.750588 0.149861 0.0826971
36 1 0.8 0.1 0.05
37 2 0.95038 0.149831 0.083129
47 2 0.0495363 0.250257 0.0826381
42 1 0.1 0.2 0.05
55 2 0.249619 0.2502 0.083065
50 1 0.3 0.2 0.05
63 2 0.449743 0.249607 0.082994
58 1 0.5 0.2 0.05
66 1 0.7 0.2 0.05
71 2 0.650576 0.249596 0.0829981
74 1 0.9 0.2 0.05
79 2 0.849996 0.250674 0.0829435
44 1 0 0.3 0.05
45 2 0.149299 0.350237 0.0829591
52 1 0.2 0.3 0.05
53 2 0.349771 0.349925 0.0828274
60 1 0.4 0.3 0.05
61 2 0.550482 0.349921 0.0830429
68 1 0.6 0.3 0.05
69 2 0.750229 0.349603 0.0829751
76 1 0.8 0.3 0.05
77 2 0.949888 0.350166 0.0829973
87 2 0.0494677 0.449556 0.0829501
82 1 0.1 0.4 0.05
95 2 0.250259 0.450137 0.0830645
90 1 0.3 0.4 0.05
103 2 0.450257 0.450453 0.0828611
98 1 0.5 0.4 0.05
106 1 0.7 0.4 0.05
111 2 0.650089 0.449352 0.0831792
114 1 0.9 0.4 0.05
119 2 0.849919 0.449207 0.0827945
84 1 0 0.5 0.05
92 1 0.2 0.5 0.05
100 1 0.4 0.5 0.05
108 1 0.6 0.5 0.05
116 1 0.8 0.5 0.05
85 2 0.149512 0.549872 0.0827998
122 1 0.1 0.6 0.05
93 2 0.350044 0.550508 0.0832981
130 1 0.3 0.6 0.05
138 1 0.5 0.6 0.05
101 2 0.550293 0.55059 0.0831415
146 1 0.7 0.6 0.05
109 2 0.75038 0.549563 0.0829669
154 1 0.9 0.6 0.05
117 2 0.950002 0.550433 0.0830373
124 1 0 0.7 0.05
127 2 0.05052 0.650444 0.0827311
132 1 0.2 0.7 0.05
135 2 0.249431 0.649535 0.0831111
140 1 0.4 0.7 0.05
143 2 0.450226 0.650616 0.0829226
148 1 0.6 0.7 0.05
151 2 0.649834 0.650219 0.082895
156 1 0.8 0.7 0.05
159 2 0.850018 0.650242 0.0831597
125 2 0.150938 0.750511 0.0832427
162 1 0.1 0.8 0.05
133 2 0.350241 0.749837 0.0828097
170 1 0.3 0.8 0.05
178 1 0.5 0.8 0.05
141 2 0.549697 0.750403 0.0832811
186 1 0.7 0.8 0.05
149 2 0.749821 0.74998 0.082966
194 1 0.9 0.8 0.05
157 2 0.950145 0.750387 0.0830356
164 1 0 0.9 0.05
167 2 0.0498466 0.850358 0.0826614
172 1 0.2 0.9 0.05
175 2 0.250824 0.850392 0.0830761
180 1 0.4 0.9 0.05
183 2 0.450204 0.850367 0.0829097
188 1 0.6 0.9 0.05
191 2 0.650239 0.849454 0.0832449
196 1 0.8 0.9 0.05
199 2 0.850101 0.849648 0.0831347
165 2 0.149265 0.949558 0.0831944
173 2 0.349899 0.949869 0.0832285
181 2 0.549191 0.949406 0.0829314
189 2 0.750515 0.950184 0.0827266
197 2 0.949585 0.949739 0.0830415
209 1 0.199625 -0.000571191 0.115931
203 1 0.100407 0.100506 0.115495
211 1 0.299674 0.100431 0.11593
219 1 0.500818 0.100909 0.115558
227 1 0.700464 0.100357 0.115529
235 1 0.899902 0.100352 0.115865
249 1 0.20016 0.199472 0.115774
257 1 0.400108 0.200123 0.116066
265 1 0.599812 0.200488 0.115908
273 1 0.799935 0.200166 0.115585
241 1 1.00038 0.200282 0.115706
243 1 0.0996715 0.299331 0.11557
251 1 0.299921 0.299999 0.115766
259 1 0.499909 0.299786 0.115798
267 1 0.700502 0.299603 0.116013
275 1 0.900136 0.300297 0.115985
289 1 0.19981 0.400042 0.115667
297 1 0.400017 0.400143 0.11568
305 1 0.600295 0.399353 0.116185
313 1 0.799932 0.399885 0.11579
281 1 0.999976 0.399556 0.116083
283 1 0.100023 0.499594 0.115676
291 1 0.299828 0.500045 0.116098
299 1 0.500282 0.500422 0.115963
307 1 0.700161 0.500077 0.115824
315 1 0.899735 0.499486 0.115656
321 1 -6.8317e-05 0.601202 0.115839
329 1 0.199014 0.599644 0.115823
337 1 0.400512 0.600803 0.116189
345 1 0.600879 0.599822 0.11583
353 1 0.799358 0.600252 0.115682
323 1 0.100233 0.70023 0.115662
331 1 0.300173 0.699824 0.115658
339 1 0.499324 0.700712 0.116214
347 1 0.700183 0.699684 0.115928
355 1 0.900088 0.700375 0.115777
361 1 0.000409256 0.800568 0.115692
369 1 0.201139 0.800593 0.115919
377 1 0.39963 0.800551 0.11595
385 1 0.600149 0.799884 0.11632
393 1 0.799371 0.800179 0.116039
363 1 0.0993702 0.89929 0.115904
371 1 0.300064 0.900087 0.116244
379 1 0.499972 0.899557 0.116062
387 1 0.700744 0.900276 0.115734
395 1 0.900117 0.899331 0.116153
217 1 0.399377 1.00085 0.115859
225 1 0.598781 0.999955 0.115788
233 1 0.800588 0.999982 0.115631
201 1 0.999948 1.00036 0.115717
208 2 0.149748 0.0504688 0.148557
216 2 0.349404 0.0504707 0.148614
224 2 0.549345 0.0506065 0.148913
232 2 0.750063 0.0499693 0.148465
240 2 0.949997 0.0505356 0.148519
206 2 0.0505553 0.150141 0.148592
214 2 0.250207 0.150335 0.149016
222 2 0.449848 0.149429 0.148538
230 2 0.650003 0.149788 0.148451
238 2 0.849213 0.149713 0.148727
248 2 0.150202 0.250126 0.148528
256 2 0.349946 0.250143 0.148836
264 2 0.549881 0.250182 0.148975
272 2 0.750586 0.249721 0.148796
280 2 0.949535 0.24911 0.14867
246 2 0.050598 0.349555 0.148643
254 2 0.249905 0.350102 0.14843
262 2 0.449758 0.349909 0.148919
270 2 0.650738 0.349889 0.148834
278 2 0.849943 0.350386 0.148639
288 2 0.150043 0.449642 0.148845
296 2 0.349873 0.449821 0.149134
304 2 0.549949 0.4496 0.148782
312 2 0.750198 0.450111 0.14866
320 2 0.949749 0.449852 0.148858
286 2 0.0500565 0.550037 0.148569
294 2 0.249486 0.550209 0.148674
302 2 0.450495 0.550469 0.148867
310 2 0.650211 0.54991 0.148773
318 2 0.84963 0.550331 0.148274
328 2 0.150159 0.650704 0.148755
336 2 0.349691 0.650477 0.148866
344 2 0.550085 0.64948 0.14835
352 2 0.750365 0.650057 0.14889
360 2 0.948882 0.649997 0.148972
326 2 0.0498494 0.749774 0.148489
334 2 0.250664 0.750233 0.148708
342 2 0.449844 0.75078 0.14938
350 2 0.650766 0.749984 0.149156
358 2 0.850194 0.750138 0.148525
368 2 0.150161 0.849865 0.148499
376 2 0.349669 0.850317 0.149251
384 2 0.550665 0.850699 0.148967
392 2 0.750212 0.850712 0.14916
400 2 0.950342 0.849458 0.149095
366 2 0.0503983 0.950571 0.148629
374 2 0.249133 0.949436 0.148942
382 2 0.449921 0.950651 0.148318
390 2 0.649489 0.949822 0.148359
398 2 0.850163 0.949956 0.148764
207 2 0.049959 0.0501247 0.214546
202 1 0.100391 0.000230669 0.181706
215 2 0.249742 0.0496236 0.214556
210 1 0.299497 0.000276167 0.181287
223 2 0.45029 0.0492751 0.214629
231 2 0.649739 0.0501519 0.214385
239 2 0.850163 0.0490962 0.21397
205 2 0.150388 0.150112 0.214883
212 1 0.199824 0.100185 0.18176
213 2 0.350632 0.149275 0.215053
220 1 0.400093 0.0992941 0.181599
228 1 0.599576 0.100792 0.181771
221 2 0.549186 0.150533 0.214769
236 1 0.799678 0.099421 0.181615
229 2 0.749928 0.149682 0.214269
204 1 0.999752 0.1003 0.181533
237 2 0.949009 0.149158 0.214614
247 2 0.050372 0.24984 0.214611
242 1 0.100874 0.199881 0.181703
255 2 0.249503 0.249668 0.214656
250 1 0.3006 0.19976 0.182061
263 2 0.449812 0.24951 0.214648
258 1 0.499203 0.199811 0.181506
266 1 0.700169 0.199696 0.181303
271 2 0.650392 0.249281 0.2145
274 1 0.899281 0.199575 0.181759
279 2 0.849423 0.25028 0.214305
245 2 0.149781 0.350146 0.214493
252 1 0.200056 0.300433 0.181576
253 2 0.35074 0.349417 0.214967
260 1 0.400337 0.299398 0.181854
268 1 0.600469 0.300187 0.181706
261 2 0.550278 0.349773 0.214617
276 1 0.800074 0.300495 0.1814
269 2 0.749886 0.34979 0.214424
244 1 1.00008 0.299369 0.181351
277 2 0.950129 0.349661 0.214465
287 2 0.0504112 0.450146 0.214512
282 1 0.0998929 0.399696 0.181664
295 2 0.249389 0.450095 0.215063
290 1 0.299427 0.399162 0.182171
303 2 0.45031 0.450282 0.214569
298 1 0.500234 0.399709 0.18182
306 1 0.7004 0.399956 0.181566
311 2 0.649638 0.449547 0.214287
314 1 0.899521 0.399939 0.18176
319 2 0.84953 0.450237 0.21449
284 1 0.00027032 0.499699 0.18155
292 1 0.200205 0.499835 0.181701
300 1 0.400601 0.500663 0.18161
308 1 0.599941 0.499968 0.181507
316 1 0.799932 0.500593 0.181487
322 1 0.100523 0.599909 0.181642
285 2 0.149851 0.549531 0.214832
330 1 0.29979 0.600168 0.181506
293 2 0.350312 0.550463 0.214289
338 1 0.500938 0.599596 0.181511
301 2 0.549967 0.549591 0.21457
346 1 0.699888 0.600387 0.181769
309 2 0.749712 0.5499 0.214696
354 1 0.899765 0.598684 0.181891
317 2 0.950529 0.548978 0.214824
324 1 0.000580968 0.699263 0.181321
327 2 0.0503721 0.650105 0.214481
332 1 0.200993 0.699942 0.181809
335 2 0.250053 0.649151 0.214888
340 1 0.399974 0.699413 0.18177
343 2 0.450986 0.649646 0.214378
348 1 0.599653 0.699404 0.181504
351 2 0.64971 0.650295 0.214667
356 1 0.800625 0.700298 0.181823
359 2 0.850451 0.64956 0.214702
362 1 0.10019 0.799884 0.181246
325 2 0.150517 0.750495 0.214221
370 1 0.300192 0.799624 0.181987
333 2 0.349999 0.749044 0.214803
378 1 0.500988 0.800607 0.181978
341 2 0.550609 0.749833 0.214759
386 1 0.701044 0.799951 0.182086
349 2 0.751067 0.750481 0.215066
394 1 0.89981 0.799313 0.181767
357 2 0.950937 0.749432 0.214091
367 2 0.0507547 0.849732 0.214315
372 1 0.199133 0.899633 0.181772
375 2 0.249085 0.849191 0.214407
380 1 0.400677 0.900588 0.181625
383 2 0.449716 0.84984 0.214536
388 1 0.601145 0.899858 0.18183
391 2 0.650966 0.850159 0.214847
396 1 0.800852 0.899957 0.182305
399 2 0.851315 0.849692 0.215103
364 1 1.00078 0.900103 0.181638
365 2 0.150046 0.950093 0.21463
373 2 0.349354 0.950155 0.214424
218 1 0.499787 0.999666 0.181481
381 2 0.549824 0.949537 0.214171
226 1 0.699562 0.999715 0.181318
389 2 0.749241 0.950143 0.214699
234 1 0.901173 0.999401 0.181339
397 2 0.94994 0.949212 0.214557
403 1 0.100201 0.100049 0.247614
411 1 0.298936 0.0998227 0.247746
419 1 0.500188 0.0994256 0.24769
427 1 0.699202 0.100764 0.247328
435 1 0.899194 0.0989102 0.247536
441 1 -0.000375707 0.199247 0.247243
449 1 0.19999 0.199855 0.247653
457 1 0.399747 0.200804 0.247811
465 1 0.598989 0.200924 0.247503
473 1 0.800163 0.19973 0.247229
443 1 0.100249 0.300185 0.247362
451 1 0.300103 0.299075 0.247582
459 1 0.49967 0.300073 0.247322
467 1 0.700348 0.299488 0.247364
475 1 0.899786 0.299501 0.247376
481 1 0.000744313 0.399623 0.247277
489 1 0.198839 0.399841 0.247696
497 1 0.39997 0.400882 0.247675
505 1 0.600108 0.399725 0.247638
513 1 0.799587 0.399959 0.247204
483 1 0.0993049 0.500275 0.247762
491 1 0.300244 0.500729 0.247446
499 1 0.500469 0.499699 0.247819
507 1 0.699084 0.499842 0.247411
515 1 0.899253 0.499877 0.247654
521 1 0.0010078 0.599461 0.247298
529 1 0.1997 0.599657 0.247603
537 1 0.400006 0.600259 0.247151
545 1 0.600253 0.599478 0.247352
553 1 0.800014 0.600012 0.247412
523 1 0.100617 0.700557 0.247237
531 1 0.299408 0.699565 0.247789
539 1 0.499835 0.700602 0.247759
547 1 0.70002 0.700357 0.24719
555 1 0.901029 0.699909 0.247245
561 1 0.000389069 0.800009 0.247079
569 1 0.1997 0.799661 0.247764
577 1 0.399916 0.800101 0.247463
585 1 0.600707 0.800125 0.247624
593 1 0.801023 0.800337 0.247745
563 1 0.100519 0.899476 0.247343
571 1 0.299473 0.899076 0.247131
579 1 0.500396 0.899211 0.247154
587 1 0.70035 0.90008 0.247793
595 1 0.900218 0.90066 0.247788
401 1 -0.000408203 0.999777 0.247487
409 1 0.199659 1.00006 0.24777
417 1 0.399461 0.999809 0.247704
425 1 0.599708 0.999658 0.247131
433 1 0.799336 1.00074 0.247197
408 2 0.150097 0.0504664 0.280892
416 2 0.349745 0.0504721 0.28063
424 2 0.550605 0.0494376 0.280484
432 2 0.749741 0.0509686 0.280185
440 2 0.949149 0.0491869 0.280623
406 2 0.0497819 0.14995 0.280437
414 2 0.24981 0.150723 0.280654
422 2 0.449737 0.149842 0.280157
430 2 0.649423 0.151011 0.280009
438 2 0.850392 0.150252 0.280567
448 2 0.15007 0.250148 0.280302
456 2 0.349966 0.250177 0.280786
464 2 0.549306 0.250452 0.280557
472 2 0.750382 0.249617 0.280281
480 2 0.950516 0.250097 0.280365
446 2 0.0502971 0.349582 0.280203
454 2 0.249825 0.349738 0.280157
462 2 0.450209 0.35063 0.280386
470 2 0.650098 0.348981 0.280355
478 2 0.849791 0.350276 0.280159
488 2 0.149442 0.450434 0.280362
496 2 0.349452 0.450286 0.280408
504 2 0.549439 0.448797 0.280615
512 2 0.749586 0.449692 0.280344
520 2 0.950563 0.449883 0.280065
486 2 0.050054 0.550202 0.280769
494 2 0.249641 0.550148 0.280434
502 2 0.449483 0.550331 0.280229
510 2 0.649438 0.549555 0.280601
518 2 0.849853 0.550558 0.280615
528 2 0.149525 0.649541 0.280229
536 2 0.350255 0.649706 0.280267
544 2 0.550567 0.649968 0.280267
552 2 0.750301 0.650711 0.279979
560 2 0.950939 0.649496 0.28019
526 2 0.0499053 0.75007 0.280323
534 2 0.249155 0.749232 0.28067
542 2 0.449316 0.750322 0.280624
550 2 0.650412 0.749372 0.280477
558 2 0.850428 0.749349 0.28017
568 2 0.150029 0.850058 0.280558
576 2 0.349755 0.849993 0.280548
584 2 0.550479 0.850078 0.280344
592 2 0.75049 0.849829 0.28019
600 2 0.950376 0.850111 0.280103
566 2 0.0500166 0.949301 0.280159
574 2 0.250644 0.94969 0.280415
582 2 0.450713 0.949428 0.279989
590 2 0.649529 0.94965 0.280154
598 2 0.849297 0.950602 0.279881
407 2 0.0498776 0.0507087 0.346175
402 1 0.0995458 -0.000538377 0.313315
415 2 0.249297 0.0495743 0.346544
410 1 0.299981 0.000375028 0.313528
423 2 0.45004 0.0497403 0.346055
418 1 0.500384 -0.000787566 0.313337
426 1 0.699368 0.000238232 0.31291
431 2 0.649587 0.0500697 0.346115
434 1 0.899126 -0.000987899 0.313263
439 2 0.850428 0.0496764 0.346473
405 2 0.149999 0.15032 0.345934
412 1 0.200616 0.100376 0.313521
413 2 0.350145 0.150063 0.346279
420 1 0.400391 0.100287 0.313339
428 1 0.600263 0.100713 0.313088
421 2 0.549243 0.150018 0.346005
436 1 0.800292 0.099797 0.313436
429 2 0.750518 0.149665 0.346619
404 1 0.999044 0.100221 0.313151
437 2 0.950272 0.150127 0.34656
447 2 0.0496093 0.250065 0.346413
442 1 0.0995622 0.200507 0.313271
455 2 0.250654 0.249903 0.345916
450 1 0.300462 0.199964 0.3133
463 2 0.449896 0.249659 0.34613
458 1 0.499202 0.200021 0.313084
466 1 0.700405 0.19923 0.313209
471 2 0.64978 0.249678 0.345851
474 1 0.900743 0.200085 0.313521
479 2 0.850222 0.250292 0.346028
445 2 0.149732 0.350437 0.345816
452 1 0.20017 0.300172 0.313397
453 2 0.350041 0.350099 0.346046
460 1 0.400721 0.299978 0.313279
468 1 0.599356 0.300174 0.313359
461 2 0.549855 0.350722 0.346114
476 1 0.799996 0.299964 0.313178
469 2 0.750148 0.350598 0.346048
444 1 1.00024 0.300371 0.313289
477 2 0.949778 0.349695 0.346369
487 2 0.0500137 0.449347 0.346372
482 1 0.0997429 0.39998 0.312976
495 2 0.249254 0.449671 0.345754
490 1 0.299831 0.399918 0.313044
503 2 0.450137 0.450716 0.345954
498 1 0.499464 0.400237 0.313507
506 1 0.699125 0.399756 0.313256
511 2 0.650408 0.450554 0.346332
514 1 0.90008 0.400243 0.313171
519 2 0.850876 0.450121 0.346397
492 1 0.199383 0.50013 0.313146
500 1 0.399557 0.500081 0.313157
508 1 0.599566 0.498844 0.313173
516 1 0.800913 0.498915 0.313216
484 1 0.999913 0.499766 0.313526
522 1 0.100272 0.600003 0.313461
485 2 0.149782 0.549727 0.346396
530 1 0.299694 0.600264 0.313342
493 2 0.349924 0.55006 0.346156
538 1 0.500372 0.599553 0.3133
501 2 0.550465 0.549221 0.346409
546 1 0.700878 0.599923 0.312884
509 2 0.750956 0.5496 0.345907
554 1 0.900395 0.600532 0.313279
517 2 0.949977 0.550596 0.346274
527 2 0.0505061 0.649844 0.346351
532 1 0.198785 0.699329 0.313399
535 2 0.249548 0.650327 0.346343
540 1 0.399886 0.699654 0.313362
543 2 0.450921 0.650493 0.346209
548 1 0.60008 0.699781 0.313589
551 2 0.650671 0.649398 0.346009
556 1 0.799341 0.700819 0.313188
559 2 0.84955 0.650328 0.345741
524 1 1.00008 0.700029 0.313618
562 1 0.100089 0.799846 0.313421
525 2 0.149436 0.749506 0.346477
570 1 0.299428 0.799511 0.313121
533 2 0.350519 0.750891 0.345942
578 1 0.500842 0.799531 0.312888
541 2 0.549907 0.750215 0.346278
586 1 0.700404 0.800093 0.313104
549 2 0.749565 0.750158 0.346254
594 1 0.900092 0.799926 0.312914
557 2 0.949695 0.750717 0.34649
567 2 0.0506101 0.850738 0.346369
572 1 0.200198 0.899817 0.31328
575 2 0.249974 0.849561 0.346131
580 1 0.400795 0.900209 0.313149
583 2 0.451163 0.849696 0.345676
588 1 0.600016 0.900082 0.313374
591 2 0.649974 0.849653 0.346071
596 1 0.800468 0.899975 0.312745
599 2 0.849687 0.849907 0.345698
564 1 1.00006 0.899851 0.3133
565 2 0.150555 0.950121 0.346229
573 2 0.350484 0.949935 0.345901
581 2 0.5504 0.949737 0.346437
589 2 0.749406 0.949186 0.345751
597 2 0.950499 0.950557 0.346261
603 1 0.100428 0.100726 0.379054
611 1 0.29949 0.100171 0.379003
619 1 0.499618 0.0996511 0.379065
627 1 0.699605 0.0994318 0.379194
635 1 0.900709 0.0999132 0.379441
641 1 4.84796e-05 0.200031 0.379426
649 1 0.199956 0.200565 0.378833
657 1 0.400599 0.199976 0.379098
665 1 0.598957 0.200658 0.378877
673 1 0.800951 0.200442 0.379204
643 1 0.10076 0.300133 0.37895
651 1 0.300138 0.299626 0.379013
659 1 0.49977 0.300003 0.378802
667 1 0.700486 0.299427 0.378809
675 1 0.9001 0.299167 0.379206
681 1 0.000140152 0.399502 0.37933
689 1 0.199542 0.39979 0.378836
697 1 0.40071 0.400128 0.378717
705 1 0.600843 0.399621 0.379071
713 1 0.800217 0.400638 0.378976
683 1 0.0998035 0.499583 0.379328
691 1 0.299557 0.499437 0.37869
699 1 0.500031 0.49934 0.379286
707 1 0.700583 0.500472 0.379075
715 1 0.90062 0.500152 0.379015
721 1 0.000638341 0.599865 0.379093
729 1 0.199483 0.600348 0.379196
737 1 0.400347 0.600271 0.378685
745 1 0.600078 0.600588 0.379136
753 1 0.800308 0.600347 0.379015
723 1 0.0996035 0.699855 0.379428
731 1 0.30066 0.700536 0.378824
739 1 0.499912 0.700846 0.379196
747 1 0.699318 0.700392 0.378897
755 1 0.899766 0.699302 0.378941
761 1 0.000115289 0.801116 0.379261
769 1 0.200012 0.799501 0.379066
777 1 0.400687 0.800751 0.378964
785 1 0.599762 0.800335 0.379151
793 1 0.800113 0.799994 0.378807
763 1 0.100454 0.900853 0.379239
771 1 0.299959 0.900542 0.378916
779 1 0.500632 0.899311 0.379038
787 1 0.699857 0.899229 0.379253
795 1 0.899518 0.899763 0.378612
601 1 0.000366642 1.00048 0.379397
609 1 0.199236 1.00014 0.379698
617 1 0.400477 0.999234 0.378874
625 1 0.59979 1.00026 0.379119
633 1 0.799608 0.998974 0.379027
608 2 0.149413 0.0507734 0.412273
616 2 0.350338 0.0498934 0.411436
624 2 0.54979 0.0499821 0.411945
632 2 0.750016 0.049566 0.41194
640 2 0.950009 0.0494905 0.412334
606 2 0.0496779 0.149502 0.412036
614 2 0.249955 0.150546 0.411906
622 2 0.450331 0.150078 0.412031
630 2 0.648995 0.15006 0.411746
638 2 0.850193 0.149702 0.412065
648 2 0.149491 0.249411 0.412243
656 2 0.349998 0.249367 0.41201
664 2 0.549389 0.250377 0.412026
672 2 0.749956 0.249489 0.412035
680 2 0.950772 0.250555 0.412052
646 2 0.050752 0.350001 0.412138
654 2 0.249911 0.35004 0.4116
662 2 0.449609 0.349709 0.412016
670 2 0.650436 0.349119 0.411903
678 2 0.849909 0.349923 0.411625
688 2 0.150085 0.449711 0.412191
696 2 0.350707 0.450175 0.411602
704 2 0.550491 0.449375 0.412125
712 2 0.74955 0.44964 0.411945
720 2 0.949724 0.449711 0.411799
686 2 0.0493345 0.549397 0.412205
694 2 0.250126 0.549972 0.411688
702 2 0.450279 0.55063 0.411538
710 2 0.650353 0.550325 0.411987
718 2 0.850127 0.549566 0.411783
728 2 0.149527 0.649812 0.412299
736 2 0.350477 0.650052 0.411795
744 2 0.549704 0.65066 0.411908
752 2 0.74966 0.650617 0.411673
760 2 0.950152 0.649682 0.411839
726 2 0.0498825 0.750575 0.412031
734 2 0.249796 0.749434 0.412045
742 2 0.449547 0.749858 0.411947
750 2 0.649163 0.749591 0.41188
758 2 0.849848 0.749747 0.411697
768 2 0.150159 0.850024 0.411805
776 2 0.350206 0.850469 0.411908
784 2 0.550622 0.850399 0.412317
792 2 0.750259 0.849358 0.412092
800 2 0.94913 0.850544 0.412048
766 2 0.0499293 0.949815 0.412145
774 2 0.249641 0.949796 0.412227
782 2 0.450661 0.949641 0.412042
790 2 0.649249 0.949571 0.411966
798 2 0.850678 0.94995 0.411917
607 2 0.0503293 0.0498646 0.477639
602 1 0.100046 -0.000362234 0.444805
615 2 0.249919 0.0493408 0.477856
610 1 0.300144 0.000449004 0.444603
623 2 0.44928 0.0494277 0.477543
618 1 0.500386 0.000180158 0.444913
626 1 0.699659 -0.000194907 0.444825
631 2 0.650516 0.0502272 0.478093
634 1 0.899285 0.000572494 0.445294
639 2 0.849632 0.0509734 0.477987
605 2 0.149494 0.149601 0.477411
612 1 0.200589 0.0998293 0.444909
613 2 0.349709 0.150237 0.477664
620 1 0.399512 0.100186 0.444708
621 2 0.549211 0.149991 0.477563
628 1 0.600009 0.099453 0.445032
629 2 0.750111 0.149605 0.477601
636 1 0.800027 0.0997142 0.444742
604 1 0.999668 0.0999287 0.44501
637 2 0.949672 0.15044 0.477729
647 2 0.0497556 0.249665 0.477665
642 1 0.0992175 0.199422 0.444858
655 2 0.249443 0.250068 0.478022
650 1 0.299388 0.200162 0.44506
663 2 0.450327 0.249863 0.477404
658 1 0.500051 0.200117 0.444636
666 1 0.699658 0.199748 0.444919
671 2 0.64957 0.250271 0.477664
674 1 0.900631 0.200203 0.444356
679 2 0.850333 0.250183 0.477249
645 2 0.150399 0.349605 0.477468
652 1 0.200459 0.299937 0.444544
653 2 0.34917 0.350035 0.477713
660 1 0.399251 0.300041 0.445005
661 2 0.550324 0.350707 0.477761
668 1 0.59954 0.30031 0.444782
669 2 0.7494 0.349566 0.478079
676 1 0.799378 0.300582 0.444663
644 1 1.00052 0.300137 0.444864
677 2 0.950193 0.350193 0.477575
687 2 0.04961 0.450852 0.477476
682 1 0.0999432 0.400279 0.44523
695 2 0.250764 0.450048 0.477814
690 1 0.300134 0.400366 0.444445
703 2 0.450278 0.450519 0.478049
698 1 0.499505 0.400021 0.444963
706 1 0.699477 0.399762 0.445034
711 2 0.650137 0.450768 0.477785
714 1 0.899603 0.399997 0.444703
719 2 0.85033 0.449866 0.477906
692 1 0.200803 0.49983 0.444839
700 1 0.400962 0.500305 0.444506
708 1 0.599996 0.500564 0.444985
716 1 0.800223 0.49936 0.444841
684 1 0.998564 0.499908 0.444872
685 2 0.150157 0.549591 0.47769
722 1 0.0990947 0.599865 0.445108
693 2 0.350225 0.54936 0.477535
730 1 0.300305 0.59972 0.444694
738 1 0.499711 0.600404 0.444676
701 2 0.549475 0.550478 0.477877
746 1 0.700137 0.600855 0.445065
709 2 0.749705 0.549409 0.477753
754 1 0.900199 0.599397 0.444813
717 2 0.9502 0.550302 0.478139
727 2 0.0489806 0.650718 0.477555
732 1 0.199768 0.699862 0.445012
735 2 0.250463 0.650155 0.477568
740 1 0.400175 0.69993 0.444923
743 2 0.450175 0.650196 0.477787
748 1 0.599859 0.699842 0.44514
751 2 0.649363 0.649807 0.478304
756 1 0.799363 0.700558 0.44473
759 2 0.849647 0.65004 0.477368
724 1 0.999116 0.700753 0.444679
725 2 0.150487 0.749872 0.477988
762 1 0.100832 0.799606 0.44489
733 2 0.350263 0.749764 0.477946
770 1 0.300187 0.799908 0.444835
778 1 0.500715 0.798946 0.444553
741 2 0.550307 0.750166 0.478002
786 1 0.699338 0.799541 0.444723
749 2 0.749035 0.749653 0.47789
794 1 0.898964 0.800117 0.444834
757 2 0.948983 0.750141 0.477899
767 2 0.0497235 0.849096 0.477611
772 1 0.199134 0.900165 0.444779
775 2 0.249728 0.850651 0.477528
780 1 0.400347 0.89967 0.445114
783 2 0.450663 0.848843 0.477657
788 1 0.599752 0.900498 0.445276
791 2 0.650084 0.850223 0.477669
796 1 0.799931 0.90056 0.444472
799 2 0.848727 0.850304 0.477552
764 1 0.999689 0.899951 0.445016
765 2 0.149203 0.949234 0.477713
773 2 0.349179 0.949543 0.477616
781 2 0.550105 0.950568 0.477793
789 2 0.749916 0.949577 0.477664
797 2 0.949948 0.950347 0.477802
803 1 0.099924 0.100224 0.510692
811 1 0.300394 0.0994279 0.510264
819 1 0.499174 0.0996464 0.510542
827 1 0.700314 0.100462 0.510693
835 1 0.899949 0.100334 0.510625
841 1 0.000136927 0.199821 0.510717
849 1 0.198826 0.199517 0.510674
857 1 0.399933 0.200271 0.510576
865 1 0.599675 0.199857 0.51034
873 1 0.800236 0.199968 0.510076
843 1 0.0996599 0.300413 0.510337
851 1 0.299929 0.299943 0.510831
859 1 0.50041 0.299797 0.510526
867 1 0.699341 0.299468 0.510728
875 1 0.899808 0.300443 0.510742
881 1 0.000409052 0.400511 0.51043
889 1 0.199411 0.400652 0.510373
897 1 0.399589 0.399684 0.510563
905 1 0.600392 0.400732 0.510676
913 1 0.800436 0.399504 0.510565
883 1 0.0998296 0.499641 0.510702
891 1 0.300153 0.500236 0.510701
899 1 0.500581 0.499968 0.510872
907 1 0.700318 0.499484 0.510996
915 1 0.899669 0.500307 0.510567
921 1 0.000551989 0.600239 0.510668
929 1 0.200541 0.59993 0.510408
937 1 0.400599 0.598961 0.510521
945 1 0.599105 0.600051 0.511058
953 1 0.800396 0.599414 0.510486
923 1 0.0992463 0.700315 0.510274
931 1 0.299832 0.700033 0.510844
939 1 0.500022 0.700184 0.510611
947 1 0.699636 0.699747 0.510974
955 1 0.899128 0.699636 0.510854
961 1 -0.00048003 0.79995 0.510801
969 1 0.199992 0.800704 0.510723
977 1 0.399592 0.800443 0.510909
985 1 0.600045 0.800545 0.510627
993 1 0.799385 0.799817 0.510621
963 1 0.0990909 0.899479 0.51066
971 1 0.300075 0.899607 0.510876
979 1 0.500179 0.900033 0.510517
987 1 0.700048 0.899737 0.510644
995 1 0.899702 0.899721 0.510285
801 1 3.61588e-06 1.00015 0.510525
809 1 0.199296 0.999313 0.510429
817 1 0.399327 0.999444 0.510617
825 1 0.600123 1.00002 0.510569
833 1 0.80027 0.999836 0.510513
808 2 0.149913 0.0497654 0.543409
816 2 0.349737 0.0500731 0.543494
824 2 0.54979 0.0497219 0.543394
832 2 0.749351 0.04941 0.543182
840 2 0.949919 0.0500526 0.543318
806 2 0.050052 0.149973 0.543822
814 2 0.249629 0.148782 0.543057
822 2 0.449603 0.14982 0.543834
830 2 0.64943 0.149827 0.543256
838 2 0.8494 0.150033 0.543224
848 2 0.149841 0.251044 0.543487
856 2 0.349619 0.2498 0.543632
864 2 0.550154 0.249491 0.543412
872 2 0.750187 0.249565 0.543064
880 2 0.950352 0.250104 0.54341
846 2 0.0504678 0.350807 0.543545
854 2 0.249794 0.350864 0.543373
862 2 0.449342 0.349212 0.543727
870 2 0.649507 0.349431 0.543448
878 2 0.849889 0.350171 0.543683
888 2 0.15026 0.450482 0.543809
896 2 0.349805 0.449941 0.543651
904 2 0.54979 0.449786 0.543671
912 2 0.750853 0.449527 0.543719
920 2 0.949707 0.450243 0.543398
886 2 0.0499574 0.550013 0.543602
894 2 0.250319 0.55024 0.543375
902 2 0.450413 0.549231 0.543676
910 2 0.650254 0.550401 0.543462
918 2 0.850316 0.549886 0.543624
928 2 0.149878 0.650455 0.543009
936 2 0.350242 0.649254 0.543483
944 2 0.549732 0.650734 0.544008
952 2 0.750017 0.649441 0.543342
960 2 0.949972 0.64958 0.543415
926 2 0.0497214 0.749704 0.543437
934 2 0.250329 0.750748 0.543696
942 2 0.450459 0.750507 0.543403
950 2 0.649613 0.750454 0.543376
958 2 0.849423 0.750274 0.543655
968 2 0.149873 0.850469 0.543666
976 2 0.349908 0.850154 0.543825
984 2 0.549894 0.850186 0.543751
992 2 0.749891 0.8502 0.543517
1000 2 0.949758 0.850595 0.543588
966 2 0.0501794 0.950778 0.543657
974 2 0.250133 0.95047 0.543359
982 2 0.450363 0.950458 0.543782
990 2 0.650708 0.950655 0.54322
998 2 0.850513 0.949924 0.543535
802 1 0.10041 0.000431175 0.576641
810 1 0.300428 -0.000398204 0.576331
818 1 0.500297 0.000571742 0.576882
826 1 0.699671 0.000520989 0.576542
834 1 0.899872 0.000585459 0.576441
812 1 0.199656 0.0997899 0.576461
820 1 0.399617 0.09944 0.576667
828 1 0.600061 0.099599 0.576305
836 1 0.798808 0.100007 0.575997
804 1 1.00002 0.0993284 0.576643
842 1 0.100514 0.200441 0.576591
850 1 0.298986 0.199532 0.576067
858 1 0.500075 0.2006 0.57656
866 1 0.699489 0.200292 0.576042
874 1 0.900377 0.199448 0.576108
852 1 0.200741 0.300009 0.576487
860 1 0.39938 0.299092 0.576667
868 1 0.59958 0.299685 0.576553
876 1 0.799952 0.299652 0.576072
844 1 1.00011 0.300103 0.576339
882 1 0.100204 0.400477 0.576837
890 1 0.300094 0.399825 0.576553
898 1 0.49962 0.399905 0.576655
906 1 0.69904 0.400265 0.576263
914 1 0.900125 0.399503 0.57627
892 1 0.200921 0.500393 0.576263
900 1 0.399225 0.500634 0.576552
908 1 0.600385 0.499921 0.576407
916 1 0.800738 0.499834 0.576525
884 1 1.00023 0.499579 0.576595
922 1 0.0996993 0.600891 0.576421
930 1 0.300417 0.599039 0.57663
938 1 0.499418 0.599856 0.576522
946 1 0.7 0.600241 0.576559
954 1 0.900257 0.599906 0.576576
932 1 0.200295 0.699815 0.576203
940 1 0.399991 0.700508 0.576411
948 1 0.600609 0.700843 0.576639
956 1 0.79935 0.699935 0.576178
924 1 0.999316 0.700013 0.576557
962 1 0.0997557 0.799702 0.57621
970 1 0.300286 0.800457 0.576668
978 1 0.500417 0.799518 0.576764
986 1 0.700019 0.799908 0.576245
994 1 0.899352 0.80061 0.576307
972 1 0.199794 0.900934 0.576413
980 1 0.400458 0.899462 0.576477
988 1 0.600527 0.901055 0.576168
996 1 0.800337 0.899728 0.576243
964 1 1.00045 0.900056 0.57643
807 2 0.0497593 0.0492348 0.609483
815 2 0.250658 0.0499073 0.609125
823 2 0.449488 0.0498483 0.609688
831 2 0.649746 0.0502533 0.6097
839 2 0.849538 0.0507429 0.609269
805 2 0.149974 0.149671 0.609625
1003 1 0.0988208 0.0999761 0.642308
813 2 0.349793 0.150475 0.609153
1011 1 0.300239 0.100345 0.642128
1019 1 0.499286 0.10047 0.642512
821 2 0.549855 0.149601 0.609244
1027 1 0.698871 0.101282 0.642461
829 2 0.748966 0.149819 0.609106
1035 1 0.899444 0.100727 0.642542
837 2 0.950032 0.149988 0.609465
847 2 0.0497759 0.250109 0.609479
1041 1 7.26409e-08 0.19998 0.642348
855 2 0.250581 0.250002 0.609625
1049 1 0.200202 0.199846 0.642315