ITEM: TIMESTEP
0
ITEM: NUMBER OF ATOMS
1800
ITEM: BOX BOUNDS pp pp pp
0.0000000000000000e+00 4.2000000000000000e+01
0.0000000000000000e+00 4.2000000000000000e+01
-1.4000000000000000e+01 5.6000000000000000e+01
ITEM: ATOMS id type xs ys zs
1 1   0.00000000000000000E+00   0.00000000000000000E+00   0.00000000000000000E+00
8 2   1.25000000000000000E-01   4.16666666666666644E-02   2.49999999999999979E-02
9 1   1.66666666666666657E-01   0.00000000000000000E+00   0.00000000000000000E+00
16 2   2.91666666666666630E-01   4.16666666666666644E-02   2.49999999999999979E-02
17 1   3.33333333333333315E-01   0.00000000000000000E+00   0.00000000000000000E+00
24 2   4.58333333333333315E-01   4.16666666666666644E-02   2.49999999999999979E-02
25 1   5.00000000000000000E-01   0.00000000000000000E+00   0.00000000000000000E+00
32 2   6.25000000000000000E-01   4.16666666666666644E-02   2.49999999999999979E-02
33 1   6.66666666666666630E-01   0.00000000000000000E+00   0.00000000000000000E+00
40 2   7.91666666666666630E-01   4.16666666666666644E-02   2.49999999999999979E-02
41 1   8.33333333333333259E-01   0.00000000000000000E+00   0.00000000000000000E+00
48 2   9.58333333333333259E-01   4.16666666666666644E-02   2.49999999999999979E-02
3 1   8.33333333333333287E-02   8.33333333333333287E-02   0.00000000000000000E+00
11 1   2.50000000000000000E-01   8.33333333333333287E-02   0.00000000000000000E+00
19 1   4.16666666666666630E-01   8.33333333333333287E-02   0.00000000000000000E+00
27 1   5.83333333333333259E-01   8.33333333333333287E-02   0.00000000000000000E+00
35 1   7.50000000000000000E-01   8.33333333333333287E-02   0.00000000000000000E+00
43 1   9.16666666666666630E-01   8.33333333333333287E-02   0.00000000000000000E+00
6 2   4.16666666666666644E-02   1.25000000000000000E-01   2.49999999999999979E-02
49 1   0.00000000000000000E+00   1.66666666666666657E-01   0.00000000000000000E+00
57 1   1.66666666666666657E-01   1.66666666666666657E-01   0.00000000000000000E+00
14 2   2.08333333333333315E-01   1.25000000000000000E-01   2.49999999999999979E-02
65 1   3.33333333333333315E-01   1.66666666666666657E-01   0.00000000000000000E+00
22 2   3.75000000000000000E-01   1.25000000000000000E-01   2.49999999999999979E-02
30 2   5.41666666666666630E-01   1.25000000000000000E-01   2.49999999999999979E-02
73 1   5.00000000000000000E-01   1.66666666666666657E-01   0.00000000000000000E+00
81 1   6.66666666666666630E-01   1.66666666666666657E-01   0.00000000000000000E+00
38 2   7.08333333333333259E-01   1.25000000000000000E-01   2.49999999999999979E-02
89 1   8.33333333333333259E-01   1.66666666666666657E-01   0.00000000000000000E+00
46 2   8.75000000000000000E-01   1.25000000000000000E-01   2.49999999999999979E-02
56 2   1.25000000000000000E-01   2.08333333333333315E-01   2.49999999999999979E-02
64 2   2.91666666666666630E-01   2.08333333333333315E-01   2.49999999999999979E-02
72 2   4.58333333333333315E-01   2.08333333333333315E-01   2.49999999999999979E-02
80 2   6.25000000000000000E-01   2.08333333333333315E-01   2.49999999999999979E-02
88 2   7.91666666666666630E-01   2.08333333333333315E-01   2.49999999999999979E-02
96 2   9.58333333333333259E-01   2.08333333333333315E-01   2.49999999999999979E-02
54 2   4.16666666666666644E-02   2.91666666666666630E-01   2.49999999999999979E-02
51 1   8.33333333333333287E-02   2.50000000000000000E-01   0.00000000000000000E+00
62 2   2.08333333333333315E-01   2.91666666666666630E-01   2.49999999999999979E-02
59 1   2.50000000000000000E-01   2.50000000000000000E-01   0.00000000000000000E+00
67 1   4.16666666666666630E-01   2.50000000000000000E-01   0.00000000000000000E+00
70 2   3.75000000000000000E-01   2.91666666666666630E-01   2.49999999999999979E-02
78 2   5.41666666666666630E-01   2.91666666666666630E-01   2.49999999999999979E-02
75 1   5.83333333333333259E-01   2.50000000000000000E-01   0.00000000000000000E+00
86 2   7.08333333333333259E-01   2.91666666666666630E-01   2.49999999999999979E-02
83 1   7.50000000000000000E-01   2.50000000000000000E-01   0.00000000000000000E+00
91 1   9.16666666666666630E-01   2.50000000000000000E-01   0.00000000000000000E+00
94 2   8.75000000000000000E-01   2.91666666666666630E-01   2.49999999999999979E-02
97 1   0.00000000000000000E+00   3.33333333333333315E-01   0.00000000000000000E+00
105 1   1.66666666666666657E-01   3.33333333333333315E-01   0.00000000000000000E+00
113 1   3.33333333333333315E-01   3.33333333333333315E-01   0.00000000000000000E+00
121 1   5.00000000000000000E-01   3.33333333333333315E-01   0.00000000000000000E+00
129 1   6.66666666666666630E-01   3.33333333333333315E-01   0.00000000000000000E+00
137 1   8.33333333333333259E-01   3.33333333333333315E-01   0.00000000000000000E+00
99 1   8.33333333333333287E-02   4.16666666666666630E-01   0.00000000000000000E+00
104 2   1.25000000000000000E-01   3.75000000000000000E-01   2.49999999999999979E-02
107 1   2.50000000000000000E-01   4.16666666666666630E-01   0.00000000000000000E+00
112 2   2.91666666666666630E-01   3.75000000000000000E-01   2.49999999999999979E-02
115 1   4.16666666666666630E-01   4.16666666666666630E-01   0.00000000000000000E+00
120 2   4.58333333333333315E-01   3.75000000000000000E-01   2.49999999999999979E-02
123 1   5.83333333333333259E-01   4.16666666666666630E-01   0.00000000000000000E+00
128 2   6.25000000000000000E-01   3.75000000000000000E-01   2.49999999999999979E-02
131 1   7.50000000000000000E-01   4.16666666666666630E-01   0.00000000000000000E+00
136 2   7.91666666666666630E-01   3.75000000000000000E-01   2.49999999999999979E-02
139 1   9.16666666666666630E-01   4.16666666666666630E-01   0.00000000000000000E+00
144 2   9.58333333333333259E-01   3.75000000000000000E-01   2.49999999999999979E-02
102 2   4.16666666666666644E-02   4.58333333333333315E-01   2.49999999999999979E-02
110 2   2.08333333333333315E-01   4.58333333333333315E-01   2.49999999999999979E-02
118 2   3.75000000000000000E-01   4.58333333333333315E-01   2.49999999999999979E-02
126 2   5.41666666666666630E-01   4.58333333333333315E-01   2.49999999999999979E-02
134 2   7.08333333333333259E-01   4.58333333333333315E-01   2.49999999999999979E-02
142 2   8.75000000000000000E-01   4.58333333333333315E-01   2.49999999999999979E-02
145 1   0.00000000000000000E+00   5.00000000000000000E-01   0.00000000000000000E+00
152 2   1.25000000000000000E-01   5.41666666666666630E-01   2.49999999999999979E-02
153 1   1.66666666666666657E-01   5.00000000000000000E-01   0.00000000000000000E+00
160 2   2.91666666666666630E-01   5.41666666666666630E-01   2.49999999999999979E-02
161 1   3.33333333333333315E-01   5.00000000000000000E-01   0.00000000000000000E+00
168 2   4.58333333333333315E-01   5.41666666666666630E-01   2.49999999999999979E-02
169 1   5.00000000000000000E-01   5.00000000000000000E-01   0.00000000000000000E+00
176 2   6.25000000000000000E-01   5.41666666666666630E-01   2.49999999999999979E-02
177 1   6.66666666666666630E-01   5.00000000000000000E-01   0.00000000000000000E+00
184 2   7.91666666666666630E-01   5.41666666666666630E-01   2.49999999999999979E-02
185 1   8.33333333333333259E-01   5.00000000000000000E-01   0.00000000000000000E+00
192 2   9.58333333333333259E-01   5.41666666666666630E-01   2.49999999999999979E-02
147 1   8.33333333333333287E-02   5.83333333333333259E-01   0.00000000000000000E+00
155 1   2.50000000000000000E-01   5.83333333333333259E-01   0.00000000000000000E+00
163 1   4.16666666666666630E-01   5.83333333333333259E-01   0.00000000000000000E+00
171 1   5.83333333333333259E-01   5.83333333333333259E-01   0.00000000000000000E+00
179 1   7.50000000000000000E-01   5.83333333333333259E-01   0.00000000000000000E+00
187 1   9.16666666666666630E-01   5.83333333333333259E-01   0.00000000000000000E+00
150 2   4.16666666666666644E-02   6.25000000000000000E-01   2.49999999999999979E-02
193 1   0.00000000000000000E+00   6.66666666666666630E-01   0.00000000000000000E+00
201 1   1.66666666666666657E-01   6.66666666666666630E-01   0.00000000000000000E+00
158 2   2.08333333333333315E-01   6.25000000000000000E-01   2.49999999999999979E-02
209 1   3.33333333333333315E-01   6.66666666666666630E-01   0.00000000000000000E+00
166 2   3.75000000000000000E-01   6.25000000000000000E-01   2.49999999999999979E-02
174 2   5.41666666666666630E-01   6.25000000000000000E-01   2.49999999999999979E-02
217 1   5.00000000000000000E-01   6.66666666666666630E-01   0.00000000000000000E+00
225 1   6.66666666666666630E-01   6.66666666666666630E-01   0.00000000000000000E+00
182 2   7.08333333333333259E-01   6.25000000000000000E-01   2.49999999999999979E-02
233 1   8.33333333333333259E-01   6.66666666666666630E-01   0.00000000000000000E+00
190 2   8.75000000000000000E-01   6.25000000000000000E-01   2.49999999999999979E-02
200 2   1.25000000000000000E-01   7.08333333333333259E-01   2.49999999999999979E-02
208 2   2.91666666666666630E-01   7.08333333333333259E-01   2.49999999999999979E-02
216 2   4.58333333333333315E-01   7.08333333333333259E-01   2.49999999999999979E-02
224 2   6.25000000000000000E-01   7.08333333333333259E-01   2.49999999999999979E-02
232 2   7.91666666666666630E-01   7.08333333333333259E-01   2.49999999999999979E-02
240 2   9.58333333333333259E-01   7.08333333333333259E-01   2.49999999999999979E-02
198 2   4.16666666666666644E-02   7.91666666666666630E-01   2.49999999999999979E-02
195 1   8.33333333333333287E-02   7.50000000000000000E-01   0.00000000000000000E+00
206 2   2.08333333333333315E-01   7.91666666666666630E-01   2.49999999999999979E-02
203 1   2.50000000000000000E-01   7.50000000000000000E-01   0.00000000000000000E+00
211 1   4.16666666666666630E-01   7.50000000000000000E-01   0.00000000000000000E+00
214 2   3.75000000000000000E-01   7.91666666666666630E-01   2.49999999999999979E-02
222 2   5.41666666666666630E-01   7.91666666666666630E-01   2.49999999999999979E-02
219 1   5.83333333333333259E-01   7.50000000000000000E-01   0.00000000000000000E+00
230 2   7.08333333333333259E-01   7.91666666666666630E-01   2.49999999999999979E-02
227 1   7.50000000000000000E-01   7.50000000000000000E-01   0.00000000000000000E+00
235 1   9.16666666666666630E-01   7.50000000000000000E-01   0.00000000000000000E+00
238 2   8.75000000000000000E-01   7.91666666666666630E-01   2.49999999999999979E-02
241 1   0.00000000000000000E+00   8.33333333333333259E-01   0.00000000000000000E+00
249 1   1.66666666666666657E-01   8.33333333333333259E-01   0.00000000000000000E+00
257 1   3.33333333333333315E-01   8.33333333333333259E-01   0.00000000000000000E+00
265 1   5.00000000000000000E-01   8.33333333333333259E-01   0.00000000000000000E+00
273 1   6.66666666666666630E-01   8.33333333333333259E-01   0.00000000000000000E+00
281 1   8.33333333333333259E-01   8.33333333333333259E-01   0.00000000000000000E+00
243 1   8.33333333333333287E-02   9.16666666666666630E-01   0.00000000000000000E+00
248 2   1.25000000000000000E-01   8.75000000000000000E-01   2.49999999999999979E-02
251 1   2.50000000000000000E-01   9.16666666666666630E-01   0.00000000000000000E+00
256 2   2.91666666666666630E-01   8.75000000000000000E-01   2.49999999999999979E-02
259 1   4.16666666666666630E-01   9.16666666666666630E-01   0.00000000000000000E+00
264 2   4.58333333333333315E-01   8.75000000000000000E-01   2.49999999999999979E-02
267 1   5.83333333333333259E-01   9.16666666666666630E-01   0.00000000000000000E+00
272 2   6.25000000000000000E-01   8.75000000000000000E-01   2.49999999999999979E-02
275 1   7.50000000000000000E-01   9.16666666666666630E-01   0.00000000000000000E+00
280 2   7.91666666666666630E-01   8.75000000000000000E-01   2.49999999999999979E-02
283 1   9.16666666666666630E-01   9.16666666666666630E-01   0.00000000000000000E+00
288 2   9.58333333333333259E-01   8.75000000000000000E-01   2.49999999999999979E-02
246 2   4.16666666666666644E-02   9.58333333333333259E-01   2.49999999999999979E-02
254 2   2.08333333333333315E-01   9.58333333333333259E-01   2.49999999999999979E-02
262 2   3.75000000000000000E-01   9.58333333333333259E-01   2.49999999999999979E-02
270 2   5.41666666666666630E-01   9.58333333333333259E-01   2.49999999999999979E-02
278 2   7.08333333333333259E-01   9.58333333333333259E-01   2.49999999999999979E-02
286 2   8.75000000000000000E-01   9.58333333333333259E-01   2.49999999999999979E-02
7 2   4.16666666666666644E-02   4.16666666666666644E-02   7.49999999999999972E-02
2 1   8.33333333333333287E-02   0.00000000000000000E+00   4.99999999999999958E-02
15 2   2.08333333333333315E-01   4.16666666666666644E-02   7.49999999999999972E-02
10 1   2.50000000000000000E-01   0.00000000000000000E+00   4.99999999999999958E-02
18 1   4.16666666666666630E-01   0.00000000000000000E+00   4.99999999999999958E-02
23 2   3.75000000000000000E-01   4.16666666666666644E-02   7.49999999999999972E-02
31 2   5.41666666666666630E-01   4.16666666666666644E-02   7.49999999999999972E-02
26 1   5.83333333333333259E-01   0.00000000000000000E+00   4.99999999999999958E-02
39 2   7.08333333333333259E-01   4.16666666666666644E-02   7.49999999999999972E-02
34 1   7.50000000000000000E-01   0.00000000000000000E+00   4.99999999999999958E-02
42 1   9.16666666666666630E-01   0.00000000000000000E+00   4.99999999999999958E-02
47 2   8.75000000000000000E-01   4.16666666666666644E-02   7.49999999999999972E-02
4 1   0.00000000000000000E+00   8.33333333333333287E-02   4.99999999999999958E-02
12 1   1.66666666666666657E-01   8.33333333333333287E-02   4.99999999999999958E-02
20 1   3.33333333333333315E-01   8.33333333333333287E-02   4.99999999999999958E-02
28 1   5.00000000000000000E-01   8.33333333333333287E-02   4.99999999999999958E-02
36 1   6.66666666666666630E-01   8.33333333333333287E-02   4.99999999999999958E-02
44 1   8.33333333333333259E-01   8.33333333333333287E-02   4.99999999999999958E-02
50 1   8.33333333333333287E-02   1.66666666666666657E-01   4.99999999999999958E-02
5 2   1.25000000000000000E-01   1.25000000000000000E-01   7.49999999999999972E-02
13 2   2.91666666666666630E-01   1.25000000000000000E-01   7.49999999999999972E-02
58 1   2.50000000000000000E-01   1.66666666666666657E-01   4.99999999999999958E-02
66 1   4.16666666666666630E-01   1.66666666666666657E-01   4.99999999999999958E-02
21 2   4.58333333333333315E-01   1.25000000000000000E-01   7.49999999999999972E-02
74 1   5.83333333333333259E-01   1.66666666666666657E-01   4.99999999999999958E-02
29 2   6.25000000000000000E-01   1.25000000000000000E-01   7.49999999999999972E-02
37 2   7.91666666666666630E-01   1.25000000000000000E-01   7.49999999999999972E-02
82 1   7.50000000000000000E-01   1.66666666666666657E-01   4.99999999999999958E-02
90 1   9.16666666666666630E-01   1.66666666666666657E-01   4.99999999999999958E-02
45 2   9.58333333333333259E-01   1.25000000000000000E-01   7.49999999999999972E-02
55 2   4.16666666666666644E-02   2.08333333333333315E-01   7.49999999999999972E-02
63 2   2.08333333333333315E-01   2.08333333333333315E-01   7.49999999999999972E-02
71 2   3.75000000000000000E-01   2.08333333333333315E-01   7.49999999999999972E-02
79 2   5.41666666666666630E-01   2.08333333333333315E-01   7.49999999999999972E-02
87 2   7.08333333333333259E-01   2.08333333333333315E-01   7.49999999999999972E-02
95 2   8.75000000000000000E-01   2.08333333333333315E-01   7.49999999999999972E-02
52 1   0.00000000000000000E+00   2.50000000000000000E-01   4.99999999999999958E-02
53 2   1.25000000000000000E-01   2.91666666666666630E-01   7.49999999999999972E-02
60 1   1.66666666666666657E-01   2.50000000000000000E-01   4.99999999999999958E-02
61 2   2.91666666666666630E-01   2.91666666666666630E-01   7.49999999999999972E-02
68 1   3.33333333333333315E-01   2.50000000000000000E-01   4.99999999999999958E-02
69 2   4.58333333333333315E-01   2.91666666666666630E-01   7.49999999999999972E-02
76 1   5.00000000000000000E-01   2.50000000000000000E-01   4.99999999999999958E-02
77 2   6.25000000000000000E-01   2.91666666666666630E-01   7.49999999999999972E-02
84 1   6.66666666666666630E-01   2.50000000000000000E-01   4.99999999999999958E-02
85 2   7.91666666666666630E-01   2.91666666666666630E-01   7.49999999999999972E-02
92 1   8.33333333333333259E-01   2.50000000000000000E-01   4.99999999999999958E-02
93 2   9.58333333333333259E-01   2.91666666666666630E-01   7.49999999999999972E-02
98 1   8.33333333333333287E-02   3.33333333333333315E-01   4.99999999999999958E-02
106 1   2.50000000000000000E-01   3.33333333333333315E-01   4.99999999999999958E-02
114 1   4.16666666666666630E-01   3.33333333333333315E-01   4.99999999999999958E-02
122 1   5.83333333333333259E-01   3.33333333333333315E-01   4.99999999999999958E-02
130 1   7.50000000000000000E-01   3.33333333333333315E-01   4.99999999999999958E-02
138 1   9.16666666666666630E-01   3.33333333333333315E-01   4.99999999999999958E-02
100 1   0.00000000000000000E+00   4.16666666666666630E-01   4.99999999999999958E-02
103 2   4.16666666666666644E-02   3.75000000000000000E-01   7.49999999999999972E-02
108 1   1.66666666666666657E-01   4.16666666666666630E-01   4.99999999999999958E-02
111 2   2.08333333333333315E-01   3.75000000000000000E-01   7.49999999999999972E-02
116 1   3.33333333333333315E-01   4.16666666666666630E-01   4.99999999999999958E-02
119 2   3.75000000000000000E-01   3.75000000000000000E-01   7.49999999999999972E-02
124 1   5.00000000000000000E-01   4.16666666666666630E-01   4.99999999999999958E-02
127 2   5.41666666666666630E-01   3.75000000000000000E-01   7.49999999999999972E-02
132 1   6.66666666666666630E-01   4.16666666666666630E-01   4.99999999999999958E-02
135 2   7.08333333333333259E-01   3.75000000000000000E-01   7.49999999999999972E-02
140 1   8.33333333333333259E-01   4.16666666666666630E-01   4.99999999999999958E-02
143 2   8.75000000000000000E-01   3.75000000000000000E-01   7.49999999999999972E-02
101 2   1.25000000000000000E-01   4.58333333333333315E-01   7.49999999999999972E-02
109 2   2.91666666666666630E-01   4.58333333333333315E-01   7.49999999999999972E-02
117 2   4.58333333333333315E-01   4.58333333333333315E-01   7.49999999999999972E-02
125 2   6.25000000000000000E-01   4.58333333333333315E-01   7.49999999999999972E-02
133 2   7.91666666666666630E-01   4.58333333333333315E-01   7.49999999999999972E-02
141 2   9.58333333333333259E-01   4.58333333333333315E-01   7.49999999999999972E-02
151 2   4.16666666666666644E-02   5.41666666666666630E-01   7.49999999999999972E-02
146 1   8.33333333333333287E-02   5.00000000000000000E-01   4.99999999999999958E-02
159 2   2.08333333333333315E-01   5.41666666666666630E-01   7.49999999999999972E-02
154 1   2.50000000000000000E-01   5.00000000000000000E-01   4.99999999999999958E-02
162 1   4.16666666666666630E-01   5.00000000000000000E-01   4.99999999999999958E-02
167 2   3.75000000000000000E-01   5.41666666666666630E-01   7.49999999999999972E-02
175 2   5.41666666666666630E-01   5.41666666666666630E-01   7.49999999999999972E-02
170 1   5.83333333333333259E-01   5.00000000000000000E-01   4.99999999999999958E-02
183 2   7.08333333333333259E-01   5.41666666666666630E-01   7.49999999999999972E-02
178 1   7.50000000000000000E-01   5.00000000000000000E-01   4.99999999999999958E-02
186 1   9.16666666666666630E-01   5.00000000000000000E-01   4.99999999999999958E-02
191 2   8.75000000000000000E-01   5.41666666666666630E-01   7.49999999999999972E-02
148 1   0.00000000000000000E+00   5.83333333333333259E-01   4.99999999999999958E-02
156 1   1.66666666666666657E-01   5.83333333333333259E-01   4.99999999999999958E-02
164 1   3.33333333333333315E-01   5.83333333333333259E-01   4.99999999999999958E-02
172 1   5.00000000000000000E-01   5.83333333333333259E-01   4.99999999999999958E-02
180 1   6.66666666666666630E-01   5.83333333333333259E-01   4.99999999999999958E-02
188 1   8.33333333333333259E-01   5.83333333333333259E-01   4.99999999999999958E-02
194 1   8.33333333333333287E-02   6.66666666666666630E-01   4.99999999999999958E-02
149 2   1.25000000000000000E-01   6.25000000000000000E-01   7.49999999999999972E-02
157 2   2.91666666666666630E-01   6.25000000000000000E-01   7.49999999999999972E-02
202 1   2.50000000000000000E-01   6.66666666666666630E-01   4.99999999999999958E-02
210 1   4.16666666666666630E-01   6.66666666666666630E-01   4.99999999999999958E-02
165 2   4.58333333333333315E-01   6.25000000000000000E-01   7.49999999999999972E-02
218 1   5.83333333333333259E-01   6.66666666666666630E-01   4.99999999999999958E-02
173 2   6.25000000000000000E-01   6.25000000000000000E-01   7.49999999999999972E-02
181 2   7.91666666666666630E-01   6.25000000000000000E-01   7.49999999999999972E-02
226 1   7.50000000000000000E-01   6.66666666666666630E-01   4.99999999999999958E-02
234 1   9.16666666666666630E-01   6.66666666666666630E-01   4.99999999999999958E-02
189 2   9.58333333333333259E-01   6.25000000000000000E-01   7.49999999999999972E-02
199 2   4.16666666666666644E-02   7.08333333333333259E-01   7.49999999999999972E-02
207 2   2.08333333333333315E-01   7.08333333333333259E-01   7.49999999999999972E-02
215 2   3.75000000000000000E-01   7.08333333333333259E-01   7.49999999999999972E-02
223 2   5.41666666666666630E-01   7.08333333333333259E-01   7.49999999999999972E-02
231 2   7.08333333333333259E-01   7.08333333333333259E-01   7.49999999999999972E-02
239 2   8.75000000000000000E-01   7.08333333333333259E-01   7.49999999999999972E-02
196 1   0.00000000000000000E+00   7.50000000000000000E-01   4.99999999999999958E-02
197 2   1.25000000000000000E-01   7.91666666666666630E-01   7.49999999999999972E-02
204 1   1.66666666666666657E-01   7.50000000000000000E-01   4.99999999999999958E-02
205 2   2.91666666666666630E-01   7.91666666666666630E-01   7.49999999999999972E-02
212 1   3.33333333333333315E-01   7.50000000000000000E-01   4.99999999999999958E-02
213 2   4.58333333333333315E-01   7.91666666666666630E-01   7.49999999999999972E-02
220 1   5.00000000000000000E-01   7.50000000000000000E-01   4.99999999999999958E-02
221 2   6.25000000000000000E-01   7.91666666666666630E-01   7.49999999999999972E-02
228 1   6.66666666666666630E-01   7.50000000000000000E-01   4.99999999999999958E-02
229 2   7.91666666666666630E-01   7.91666666666666630E-01   7.49999999999999972E-02
236 1   8.33333333333333259E-01   7.50000000000000000E-01   4.99999999999999958E-02
237 2   9.58333333333333259E-01   7.91666666666666630E-01   7.49999999999999972E-02
242 1   8.33333333333333287E-02   8.33333333333333259E-01   4.99999999999999958E-02
250 1   2.50000000000000000E-01   8.33333333333333259E-01   4.99999999999999958E-02
258 1   4.16666666666666630E-01   8.33333333333333259E-01   4.99999999999999958E-02
266 1   5.83333333333333259E-01   8.33333333333333259E-01   4.99999999999999958E-02
274 1   7.50000000000000000E-01   8.33333333333333259E-01   4.99999999999999958E-02
282 1   9.16666666666666630E-01   8.33333333333333259E-01   4.99999999999999958E-02
244 1   0.00000000000000000E+00   9.16666666666666630E-01   4.99999999999999958E-02
247 2   4.16666666666666644E-02   8.75000000000000000E-01   7.49999999999999972E-02
252 1   1.66666666666666657E-01   9.16666666666666630E-01   4.99999999999999958E-02
255 2   2.08333333333333315E-01   8.75000000000000000E-01   7.49999999999999972E-02
260 1   3.33333333333333315E-01   9.16666666666666630E-01   4.99999999999999958E-02
263 2   3.75000000000000000E-01   8.75000000000000000E-01   7.49999999999999972E-02
268 1   5.00000000000000000E-01   9.16666666666666630E-01   4.99999999999999958E-02
271 2   5.41666666666666630E-01   8.75000000000000000E-01   7.49999999999999972E-02
276 1   6.66666666666666630E-01   9.16666666666666630E-01   4.99999999999999958E-02
279 2   7.08333333333333259E-01   8.75000000000000000E-01   7.49999999999999972E-02
284 1   8.33333333333333259E-01   9.16666666666666630E-01   4.99999999999999958E-02
287 2   8.75000000000000000E-01   8.75000000000000000E-01   7.49999999999999972E-02
245 2   1.25000000000000000E-01   9.58333333333333259E-01   7.49999999999999972E-02
253 2   2.91666666666666630E-01   9.58333333333333259E-01   7.49999999999999972E-02
261 2   4.58333333333333315E-01   9.58333333333333259E-01   7.49999999999999972E-02
269 2   6.25000000000000000E-01   9.58333333333333259E-01   7.49999999999999972E-02
277 2   7.91666666666666630E-01   9.58333333333333259E-01   7.49999999999999972E-02
285 2   9.58333333333333259E-01   9.58333333333333259E-01   7.49999999999999972E-02
289 1   0.00000000000000000E+00   0.00000000000000000E+00   9.99999999999999917E-02
297 1   1.66666666666666657E-01   0.00000000000000000E+00   9.99999999999999917E-02
305 1   3.33333333333333315E-01   0.00000000000000000E+00   9.99999999999999917E-02
313 1   5.00000000000000000E-01   0.00000000000000000E+00   9.99999999999999917E-02
321 1   6.66666666666666630E-01   0.00000000000000000E+00   9.99999999999999917E-02
329 1   8.33333333333333259E-01   0.00000000000000000E+00   9.99999999999999917E-02
291 1   8.33333333333333287E-02   8.33333333333333287E-02   9.99999999999999917E-02
299 1   2.50000000000000000E-01   8.33333333333333287E-02   9.99999999999999917E-02
307 1   4.16666666666666630E-01   8.33333333333333287E-02   9.99999999999999917E-02
315 1   5.83333333333333259E-01   8.33333333333333287E-02   9.99999999999999917E-02
323 1   7.50000000000000000E-01   8.33333333333333287E-02   9.99999999999999917E-02
331 1   9.16666666666666630E-01   8.33333333333333287E-02   9.99999999999999917E-02
337 1   0.00000000000000000E+00   1.66666666666666657E-01   9.99999999999999917E-02
345 1   1.66666666666666657E-01   1.66666666666666657E-01   9.99999999999999917E-02
353 1   3.33333333333333315E-01   1.66666666666666657E-01   9.99999999999999917E-02
361 1   5.00000000000000000E-01   1.66666666666666657E-01   9.99999999999999917E-02
369 1   6.66666666666666630E-01   1.66666666666666657E-01   9.99999999999999917E-02
377 1   8.33333333333333259E-01   1.66666666666666657E-01   9.99999999999999917E-02
339 1   8.33333333333333287E-02   2.50000000000000000E-01   9.99999999999999917E-02
347 1   2.50000000000000000E-01   2.50000000000000000E-01   9.99999999999999917E-02
355 1   4.16666666666666630E-01   2.50000000000000000E-01   9.99999999999999917E-02
363 1   5.83333333333333259E-01   2.50000000000000000E-01   9.99999999999999917E-02
371 1   7.50000000000000000E-01   2.50000000000000000E-01   9.99999999999999917E-02
379 1   9.16666666666666630E-01   2.50000000000000000E-01   9.99999999999999917E-02
385 1   0.00000000000000000E+00   3.33333333333333315E-01   9.99999999999999917E-02
393 1   1.66666666666666657E-01   3.33333333333333315E-01   9.99999999999999917E-02
401 1   3.33333333333333315E-01   3.33333333333333315E-01   9.99999999999999917E-02
409 1   5.00000000000000000E-01   3.33333333333333315E-01   9.99999999999999917E-02
417 1   6.66666666666666630E-01   3.33333333333333315E-01   9.99999999999999917E-02
425 1   8.33333333333333259E-01   3.33333333333333315E-01   9.99999999999999917E-02
387 1   8.33333333333333287E-02   4.16666666666666630E-01   9.99999999999999917E-02
395 1   2.50000000000000000E-01   4.16666666666666630E-01   9.99999999999999917E-02
403 1   4.16666666666666630E-01   4.16666666666666630E-01   9.99999999999999917E-02
411 1   5.83333333333333259E-01   4.16666666666666630E-01   9.99999999999999917E-02
419 1   7.50000000000000000E-01   4.16666666666666630E-01   9.99999999999999917E-02
427 1   9.16666666666666630E-01   4.16666666666666630E-01   9.99999999999999917E-02
433 1   0.00000000000000000E+00   5.00000000000000000E-01   9.99999999999999917E-02
441 1   1.66666666666666657E-01   5.00000000000000000E-01   9.99999999999999917E-02
449 1   3.33333333333333315E-01   5.00000000000000000E-01   9.99999999999999917E-02
457 1   5.00000000000000000E-01   5.00000000000000000E-01   9.99999999999999917E-02
465 1   6.66666666666666630E-01   5.00000000000000000E-01   9.99999999999999917E-02
473 1   8.33333333333333259E-01   5.00000000000000000E-01   9.99999999999999917E-02
435 1   8.33333333333333287E-02   5.83333333333333259E-01   9.99999999999999917E-02
443 1   2.50000000000000000E-01   5.83333333333333259E-01   9.99999999999999917E-02
451 1   4.16666666666666630E-01   5.83333333333333259E-01   9.99999999999999917E-02
459 1   5.83333333333333259E-01   5.83333333333333259E-01   9.99999999999999917E-02
467 1   7.50000000000000000E-01   5.83333333333333259E-01   9.99999999999999917E-02
475 1   9.16666666666666630E-01   5.83333333333333259E-01   9.99999999999999917E-02
481 1   0.00000000000000000E+00   6.66666666666666630E-01   9.99999999999999917E-02
489 1   1.66666666666666657E-01   6.66666666666666630E-01   9.99999999999999917E-02
497 1   3.33333333333333315E-01   6.66666666666666630E-01   9.99999999999999917E-02
505 1   5.00000000000000000E-01   6.66666666666666630E-01   9.99999999999999917E-02
513 1   6.66666666666666630E-01   6.66666666666666630E-01   9.99999999999999917E-02
521 1   8.33333333333333259E-01   6.66666666666666630E-01   9.99999999999999917E-02
483 1   8.33333333333333287E-02   7.50000000000000000E-01   9.99999999999999917E-02
491 1   2.50000000000000000E-01   7.50000000000000000E-01   9.99999999999999917E-02
499 1   4.16666666666666630E-01   7.50000000000000000E-01   9.99999999999999917E-02
507 1   5.83333333333333259E-01   7.50000000000000000E-01   9.99999999999999917E-02
515 1   7.50000000000000000E-01   7.50000000000000000E-01   9.99999999999999917E-02
523 1   9.16666666666666630E-01   7.50000000000000000E-01   9.99999999999999917E-02
529 1   0.00000000000000000E+00   8.33333333333333259E-01   9.99999999999999917E-02
537 1   1.66666666666666657E-01   8.33333333333333259E-01   9.99999999999999917E-02
545 1   3.33333333333333315E-01   8.33333333333333259E-01   9.99999999999999917E-02
553 1   5.00000000000000000E-01   8.33333333333333259E-01   9.99999999999999917E-02
561 1   6.66666666666666630E-01   8.33333333333333259E-01   9.99999999999999917E-02
569 1   8.33333333333333259E-01   8.33333333333333259E-01   9.99999999999999917E-02
531 1   8.33333333333333287E-02   9.16666666666666630E-01   9.99999999999999917E-02